Program Version,EnergyPlus, Version 23.2.0-7636e6b3e9, YMD=2025.01.12 17:47
1,5,Environment Title[],Latitude[deg],Longitude[deg],Time Zone[],Elevation[m]
2,8,Day of Simulation[],Month[],Day of Month[],DST Indicator[1=yes 0=no],Hour[],StartMinute[],EndMinute[],DayType
3,5,Cumulative Day of Simulation[],Month[],Day of Month[],DST Indicator[1=yes 0=no],DayType  ! When Daily Report Variables Requested
4,2,Cumulative Days of Simulation[],Month[]  ! When Monthly Report Variables Requested
5,1,Cumulative Days of Simulation[] ! When Run Period Report Variables Requested
6,1,Calendar Year of Simulation[] ! When Annual Report Variables Requested
8,1,Electricity:Facility [J] !TimeStep
1648,1,DistrictCooling:Facility [J] !TimeStep
End of Data Dictionary
1,CALGARY INTL AP ANN CLG .4% CONDNS DB=>MWB HVAC Sizing Pass 1,  51.11,-114.02,  -7.00,1084.10
2,1, 7,21, 0, 1, 0.00,10.00,SummerDesignDay
8,1129182.1561338278
1648,0.0
2,1, 7,21, 0, 1,10.00,20.00,SummerDesignDay
8,1129182.1561338278
1648,0.0
2,1, 7,21, 0, 1,20.00,30.00,SummerDesignDay
8,1129182.1561338278
1648,0.0
2,1, 7,21, 0, 1,30.00,40.00,SummerDesignDay
8,1129182.1561338278
1648,0.0
2,1, 7,21, 0, 1,40.00,50.00,SummerDesignDay
8,1129182.1561338278
1648,0.0
2,1, 7,21, 0, 1,50.00,60.00,SummerDesignDay
8,1129182.1561338278
1648,0.0
2,1, 7,21, 0, 2, 0.00,10.00,SummerDesignDay
8,1129182.1561338278
1648,0.0
2,1, 7,21, 0, 2,10.00,20.00,SummerDesignDay
8,1129182.1561338278
1648,0.0
2,1, 7,21, 0, 2,20.00,30.00,SummerDesignDay
8,1129182.1561338278
1648,0.0
2,1, 7,21, 0, 2,30.00,40.00,SummerDesignDay
8,1129182.1561338278
1648,0.0
2,1, 7,21, 0, 2,40.00,50.00,SummerDesignDay
8,1129182.1561338278
1648,0.0
2,1, 7,21, 0, 2,50.00,60.00,SummerDesignDay
8,1129182.1561338278
1648,0.0
2,1, 7,21, 0, 3, 0.00,10.00,SummerDesignDay
8,1129182.1561338278
1648,0.0
2,1, 7,21, 0, 3,10.00,20.00,SummerDesignDay
8,1129182.1561338278
1648,0.0
2,1, 7,21, 0, 3,20.00,30.00,SummerDesignDay
8,1129182.1561338278
1648,0.0
2,1, 7,21, 0, 3,30.00,40.00,SummerDesignDay
8,1129182.1561338278
1648,0.0
2,1, 7,21, 0, 3,40.00,50.00,SummerDesignDay
8,1129182.1561338278
1648,0.0
2,1, 7,21, 0, 3,50.00,60.00,SummerDesignDay
8,1129182.1561338278
1648,0.0
2,1, 7,21, 0, 4, 0.00,10.00,SummerDesignDay
8,1129182.1561338278
1648,0.0
2,1, 7,21, 0, 4,10.00,20.00,SummerDesignDay
8,1129182.1561338278
1648,0.0
2,1, 7,21, 0, 4,20.00,30.00,SummerDesignDay
8,1129182.1561338278
1648,0.0
2,1, 7,21, 0, 4,30.00,40.00,SummerDesignDay
8,1129182.1561338278
1648,0.0
2,1, 7,21, 0, 4,40.00,50.00,SummerDesignDay
8,1129182.1561338278
1648,0.0
2,1, 7,21, 0, 4,50.00,60.00,SummerDesignDay
8,1129182.1561338278
1648,0.0
2,1, 7,21, 0, 5, 0.00,10.00,SummerDesignDay
8,1129182.1561338278
1648,0.0
2,1, 7,21, 0, 5,10.00,20.00,SummerDesignDay
8,1129182.1561338278
1648,0.0
2,1, 7,21, 0, 5,20.00,30.00,SummerDesignDay
8,1129182.1561338278
1648,0.0
2,1, 7,21, 0, 5,30.00,40.00,SummerDesignDay
8,1129182.1561338278
1648,0.0
2,1, 7,21, 0, 5,40.00,50.00,SummerDesignDay
8,1129182.1561338278
1648,0.0
2,1, 7,21, 0, 5,50.00,60.00,SummerDesignDay
8,1129182.1561338278
1648,0.0
2,1, 7,21, 0, 6, 0.00,10.00,SummerDesignDay
8,1129182.1561338278
1648,0.0
2,1, 7,21, 0, 6,10.00,20.00,SummerDesignDay
8,1129182.1561338278
1648,0.0
2,1, 7,21, 0, 6,20.00,30.00,SummerDesignDay
8,1129182.1561338278
1648,0.0
2,1, 7,21, 0, 6,30.00,40.00,SummerDesignDay
8,1129182.1561338278
1648,0.0
2,1, 7,21, 0, 6,40.00,50.00,SummerDesignDay
8,1129182.1561338278
1648,0.0
2,1, 7,21, 0, 6,50.00,60.00,SummerDesignDay
8,1129182.1561338278
1648,0.0
2,1, 7,21, 0, 7, 0.00,10.00,SummerDesignDay
8,1129182.1561338278
1648,0.0
2,1, 7,21, 0, 7,10.00,20.00,SummerDesignDay
8,1129182.1561338278
1648,0.0
2,1, 7,21, 0, 7,20.00,30.00,SummerDesignDay
8,1129182.1561338278
1648,0.0
2,1, 7,21, 0, 7,30.00,40.00,SummerDesignDay
8,1129182.1561338278
1648,0.0
2,1, 7,21, 0, 7,40.00,50.00,SummerDesignDay
8,1129182.1561338278
1648,0.0
2,1, 7,21, 0, 7,50.00,60.00,SummerDesignDay
8,1129182.1561338278
1648,0.0
2,1, 7,21, 0, 8, 0.00,10.00,SummerDesignDay
8,1129182.1561338278
1648,14519707.55698608
2,1, 7,21, 0, 8,10.00,20.00,SummerDesignDay
8,1129182.1561338278
1648,7626535.444483859
2,1, 7,21, 0, 8,20.00,30.00,SummerDesignDay
8,1129182.1561338278
1648,8545613.613006804
2,1, 7,21, 0, 8,30.00,40.00,SummerDesignDay
8,1129182.1561338278
1648,7873287.401810255
2,1, 7,21, 0, 8,40.00,50.00,SummerDesignDay
8,1129182.1561338278
1648,8082253.772501677
2,1, 7,21, 0, 8,50.00,60.00,SummerDesignDay
8,1129182.1561338278
1648,8335204.563909872
2,1, 7,21, 0, 9, 0.00,10.00,SummerDesignDay
8,11291821.561338281
1648,9851707.497494182
2,1, 7,21, 0, 9,10.00,20.00,SummerDesignDay
8,11291821.561338281
1648,12068475.08381521
2,1, 7,21, 0, 9,20.00,30.00,SummerDesignDay
8,11291821.561338281
1648,15178555.946414437
2,1, 7,21, 0, 9,30.00,40.00,SummerDesignDay
8,11291821.561338281
1648,19254122.39585505
2,1, 7,21, 0, 9,40.00,50.00,SummerDesignDay
8,11291821.561338281
1648,26408479.79141371
2,1, 7,21, 0, 9,50.00,60.00,SummerDesignDay
8,11291821.561338281
1648,33343958.709922962
2,1, 7,21, 0,10, 0.00,10.00,SummerDesignDay
8,20325278.810408894
1648,42373940.4311506
2,1, 7,21, 0,10,10.00,20.00,SummerDesignDay
8,20325278.810408894
1648,48204690.48807505
2,1, 7,21, 0,10,20.00,30.00,SummerDesignDay
8,20325278.810408894
1648,52961736.12655503
2,1, 7,21, 0,10,30.00,40.00,SummerDesignDay
8,20325278.810408894
1648,57404106.57456203
2,1, 7,21, 0,10,40.00,50.00,SummerDesignDay
8,20325278.810408894
1648,61519662.27200592
2,1, 7,21, 0,10,50.00,60.00,SummerDesignDay
8,20325278.810408894
1648,65354378.755610555
2,1, 7,21, 0,11, 0.00,10.00,SummerDesignDay
8,20325278.810408894
1648,69543324.2628135
2,1, 7,21, 0,11,10.00,20.00,SummerDesignDay
8,20325278.810408894
1648,72929071.28724907
2,1, 7,21, 0,11,20.00,30.00,SummerDesignDay
8,20325278.810408894
1648,76107598.40939192
2,1, 7,21, 0,11,30.00,40.00,SummerDesignDay
8,20325278.810408894
1648,79045779.5151562
2,1, 7,21, 0,11,40.00,50.00,SummerDesignDay
8,20325278.810408894
1648,81738759.0475465
2,1, 7,21, 0,11,50.00,60.00,SummerDesignDay
8,20325278.810408894
1648,84208351.10137749
2,1, 7,21, 0,12, 0.00,10.00,SummerDesignDay
8,20325278.810408894
1648,86206604.73062582
2,1, 7,21, 0,12,10.00,20.00,SummerDesignDay
8,20325278.810408894
1648,88019925.75177523
2,1, 7,21, 0,12,20.00,30.00,SummerDesignDay
8,20325278.810408894
1648,89670183.33839314
2,1, 7,21, 0,12,30.00,40.00,SummerDesignDay
8,20325278.810408894
1648,91170347.51241691
2,1, 7,21, 0,12,40.00,50.00,SummerDesignDay
8,20325278.810408894
1648,92531698.2027872
2,1, 7,21, 0,12,50.00,60.00,SummerDesignDay
8,20325278.810408894
1648,93766299.907058
2,1, 7,21, 0,13, 0.00,10.00,SummerDesignDay
8,20325278.810408894
1648,95256419.73686203
2,1, 7,21, 0,13,10.00,20.00,SummerDesignDay
8,20325278.810408894
1648,96283198.00475879
2,1, 7,21, 0,13,20.00,30.00,SummerDesignDay
8,20325278.810408894
1648,97212184.47452232
2,1, 7,21, 0,13,30.00,40.00,SummerDesignDay
8,20325278.810408894
1648,98009960.17961289
2,1, 7,21, 0,13,40.00,50.00,SummerDesignDay
8,20325278.810408894
1648,98709115.78820941
2,1, 7,21, 0,13,50.00,60.00,SummerDesignDay
8,20325278.810408894
1648,99328843.69788444
2,1, 7,21, 0,14, 0.00,10.00,SummerDesignDay
8,20325278.810408894
1648,99699101.15036276
2,1, 7,21, 0,14,10.00,20.00,SummerDesignDay
8,20325278.810408894
1648,99982860.95530397
2,1, 7,21, 0,14,20.00,30.00,SummerDesignDay
8,20325278.810408894
1648,100178974.8968922
2,1, 7,21, 0,14,30.00,40.00,SummerDesignDay
8,20325278.810408894
1648,100279391.1058322
2,1, 7,21, 0,14,40.00,50.00,SummerDesignDay
8,20325278.810408894
1648,100276538.39565346
2,1, 7,21, 0,14,50.00,60.00,SummerDesignDay
8,20325278.810408894
1648,100162744.29112314
2,1, 7,21, 0,15, 0.00,10.00,SummerDesignDay
8,20325278.810408894
1648,99648423.9388988
2,1, 7,21, 0,15,10.00,20.00,SummerDesignDay
8,20325278.810408894
1648,99002452.6211017
2,1, 7,21, 0,15,20.00,30.00,SummerDesignDay
8,20325278.810408894
1648,98224027.58650804
2,1, 7,21, 0,15,30.00,40.00,SummerDesignDay
8,20325278.810408894
1648,97308668.3895994
2,1, 7,21, 0,15,40.00,50.00,SummerDesignDay
8,20325278.810408894
1648,96255149.30594493
2,1, 7,21, 0,15,50.00,60.00,SummerDesignDay
8,20325278.810408894
1648,95063499.13290724
2,1, 7,21, 0,16, 0.00,10.00,SummerDesignDay
8,20325278.810408894
1648,93398912.81098619
2,1, 7,21, 0,16,10.00,20.00,SummerDesignDay
8,20325278.810408894
1648,91595226.14860022
2,1, 7,21, 0,16,20.00,30.00,SummerDesignDay
8,20325278.810408894
1648,89664857.73427783
2,1, 7,21, 0,16,30.00,40.00,SummerDesignDay
8,20325278.810408894
1648,87617717.89813676
2,1, 7,21, 0,16,40.00,50.00,SummerDesignDay
8,20325278.810408894
1648,85466673.21822718
2,1, 7,21, 0,16,50.00,60.00,SummerDesignDay
8,20325278.810408894
1648,83226294.00390585
2,1, 7,21, 0,17, 0.00,10.00,SummerDesignDay
8,20325278.810408894
1648,81005903.68033935
2,1, 7,21, 0,17,10.00,20.00,SummerDesignDay
8,20325278.810408894
1648,78544775.56717521
2,1, 7,21, 0,17,20.00,30.00,SummerDesignDay
8,20325278.810408894
1648,76045197.22188991
2,1, 7,21, 0,17,30.00,40.00,SummerDesignDay
8,20325278.810408894
1648,73512695.71336028
2,1, 7,21, 0,17,40.00,50.00,SummerDesignDay
8,20325278.810408894
1648,70962678.99659532
2,1, 7,21, 0,17,50.00,60.00,SummerDesignDay
8,20325278.810408894
1648,68425167.91104172
2,1, 7,21, 0,18, 0.00,10.00,SummerDesignDay
8,20325278.810408894
1648,65569565.518525176
2,1, 7,21, 0,18,10.00,20.00,SummerDesignDay
8,20325278.810408894
1648,62971316.77740081
2,1, 7,21, 0,18,20.00,30.00,SummerDesignDay
8,20325278.810408894
1648,60453195.14963314
2,1, 7,21, 0,18,30.00,40.00,SummerDesignDay
8,20325278.810408894
1648,58120002.40979425
2,1, 7,21, 0,18,40.00,50.00,SummerDesignDay
8,20325278.810408894
1648,55944507.836810894
2,1, 7,21, 0,18,50.00,60.00,SummerDesignDay
8,20325278.810408894
1648,53769107.951432504
2,1, 7,21, 0,19, 0.00,10.00,SummerDesignDay
8,20325278.810408894
1648,51017429.69767976
2,1, 7,21, 0,19,10.00,20.00,SummerDesignDay
8,20325278.810408894
1648,48802883.96524603
2,1, 7,21, 0,19,20.00,30.00,SummerDesignDay
8,20325278.810408894
1648,46676775.53410656
2,1, 7,21, 0,19,30.00,40.00,SummerDesignDay
8,20325278.810408894
1648,44620865.95448602
2,1, 7,21, 0,19,40.00,50.00,SummerDesignDay
8,20325278.810408894
1648,42619539.38358139
2,1, 7,21, 0,19,50.00,60.00,SummerDesignDay
8,20325278.810408894
1648,40627753.457222424
2,1, 7,21, 0,20, 0.00,10.00,SummerDesignDay
8,13550185.873605939
1648,34558982.03757305
2,1, 7,21, 0,20,10.00,20.00,SummerDesignDay
8,13550185.873605939
1648,31913626.61200399
2,1, 7,21, 0,20,20.00,30.00,SummerDesignDay
8,13550185.873605939
1648,29586168.097675078
2,1, 7,21, 0,20,30.00,40.00,SummerDesignDay
8,13550185.873605939
1648,27182857.800562438
2,1, 7,21, 0,20,40.00,50.00,SummerDesignDay
8,13550185.873605939
1648,24634943.20033641
2,1, 7,21, 0,20,50.00,60.00,SummerDesignDay
8,13550185.873605939
1648,21772142.628988616
2,1, 7,21, 0,21, 0.00,10.00,SummerDesignDay
8,11291821.561338281
1648,17498358.930854674
2,1, 7,21, 0,21,10.00,20.00,SummerDesignDay
8,11291821.561338281
1648,14054470.808092613
2,1, 7,21, 0,21,20.00,30.00,SummerDesignDay
8,11291821.561338281
1648,10779369.621739304
2,1, 7,21, 0,21,30.00,40.00,SummerDesignDay
8,11291821.561338281
1648,7455806.794007607
2,1, 7,21, 0,21,40.00,50.00,SummerDesignDay
8,11291821.561338281
1648,5470657.816394015
2,1, 7,21, 0,21,50.00,60.00,SummerDesignDay
8,11291821.561338281
1648,3994955.9665797725
2,1, 7,21, 0,22, 0.00,10.00,SummerDesignDay
8,1129182.1561338278
1648,0.0
2,1, 7,21, 0,22,10.00,20.00,SummerDesignDay
8,1129182.1561338278
1648,0.0
2,1, 7,21, 0,22,20.00,30.00,SummerDesignDay
8,1129182.1561338278
1648,0.0
2,1, 7,21, 0,22,30.00,40.00,SummerDesignDay
8,1129182.1561338278
1648,0.0
2,1, 7,21, 0,22,40.00,50.00,SummerDesignDay
8,1129182.1561338278
1648,0.0
2,1, 7,21, 0,22,50.00,60.00,SummerDesignDay
8,1129182.1561338278
1648,0.0
2,1, 7,21, 0,23, 0.00,10.00,SummerDesignDay
8,1129182.1561338278
1648,0.0
2,1, 7,21, 0,23,10.00,20.00,SummerDesignDay
8,1129182.1561338278
1648,0.0
2,1, 7,21, 0,23,20.00,30.00,SummerDesignDay
8,1129182.1561338278
1648,0.0
2,1, 7,21, 0,23,30.00,40.00,SummerDesignDay
8,1129182.1561338278
1648,0.0
2,1, 7,21, 0,23,40.00,50.00,SummerDesignDay
8,1129182.1561338278
1648,0.0
2,1, 7,21, 0,23,50.00,60.00,SummerDesignDay
8,1129182.1561338278
1648,0.0
2,1, 7,21, 0,24, 0.00,10.00,SummerDesignDay
8,1129182.1561338278
1648,0.0
2,1, 7,21, 0,24,10.00,20.00,SummerDesignDay
8,1129182.1561338278
1648,0.0
2,1, 7,21, 0,24,20.00,30.00,SummerDesignDay
8,1129182.1561338278
1648,0.0
2,1, 7,21, 0,24,30.00,40.00,SummerDesignDay
8,1129182.1561338278
1648,0.0
2,1, 7,21, 0,24,40.00,50.00,SummerDesignDay
8,1129182.1561338278
1648,0.0
2,1, 7,21, 0,24,50.00,60.00,SummerDesignDay
8,1129182.1561338278
1648,0.0
1,CALGARY INTL AP ANN CLG .4% CONDNS WB=>MDB HVAC Sizing Pass 1,  51.11,-114.02,  -7.00,1084.10
2,1, 7,21, 0, 1, 0.00,10.00,SummerDesignDay
8,1129182.1561338278
1648,0.0
2,1, 7,21, 0, 1,10.00,20.00,SummerDesignDay
8,1129182.1561338278
1648,0.0
2,1, 7,21, 0, 1,20.00,30.00,SummerDesignDay
8,1129182.1561338278
1648,0.0
2,1, 7,21, 0, 1,30.00,40.00,SummerDesignDay
8,1129182.1561338278
1648,0.0
2,1, 7,21, 0, 1,40.00,50.00,SummerDesignDay
8,1129182.1561338278
1648,0.0
2,1, 7,21, 0, 1,50.00,60.00,SummerDesignDay
8,1129182.1561338278
1648,0.0
2,1, 7,21, 0, 2, 0.00,10.00,SummerDesignDay
8,1129182.1561338278
1648,0.0
2,1, 7,21, 0, 2,10.00,20.00,SummerDesignDay
8,1129182.1561338278
1648,0.0
2,1, 7,21, 0, 2,20.00,30.00,SummerDesignDay
8,1129182.1561338278
1648,0.0
2,1, 7,21, 0, 2,30.00,40.00,SummerDesignDay
8,1129182.1561338278
1648,0.0
2,1, 7,21, 0, 2,40.00,50.00,SummerDesignDay
8,1129182.1561338278
1648,0.0
2,1, 7,21, 0, 2,50.00,60.00,SummerDesignDay
8,1129182.1561338278
1648,0.0
2,1, 7,21, 0, 3, 0.00,10.00,SummerDesignDay
8,1129182.1561338278
1648,0.0
2,1, 7,21, 0, 3,10.00,20.00,SummerDesignDay
8,1129182.1561338278
1648,0.0
2,1, 7,21, 0, 3,20.00,30.00,SummerDesignDay
8,1129182.1561338278
1648,0.0
2,1, 7,21, 0, 3,30.00,40.00,SummerDesignDay
8,1129182.1561338278
1648,0.0
2,1, 7,21, 0, 3,40.00,50.00,SummerDesignDay
8,1129182.1561338278
1648,0.0
2,1, 7,21, 0, 3,50.00,60.00,SummerDesignDay
8,1129182.1561338278
1648,0.0
2,1, 7,21, 0, 4, 0.00,10.00,SummerDesignDay
8,1129182.1561338278
1648,0.0
2,1, 7,21, 0, 4,10.00,20.00,SummerDesignDay
8,1129182.1561338278
1648,0.0
2,1, 7,21, 0, 4,20.00,30.00,SummerDesignDay
8,1129182.1561338278
1648,0.0
2,1, 7,21, 0, 4,30.00,40.00,SummerDesignDay
8,1129182.1561338278
1648,0.0
2,1, 7,21, 0, 4,40.00,50.00,SummerDesignDay
8,1129182.1561338278
1648,0.0
2,1, 7,21, 0, 4,50.00,60.00,SummerDesignDay
8,1129182.1561338278
1648,0.0
2,1, 7,21, 0, 5, 0.00,10.00,SummerDesignDay
8,1129182.1561338278
1648,0.0
2,1, 7,21, 0, 5,10.00,20.00,SummerDesignDay
8,1129182.1561338278
1648,0.0
2,1, 7,21, 0, 5,20.00,30.00,SummerDesignDay
8,1129182.1561338278
1648,0.0
2,1, 7,21, 0, 5,30.00,40.00,SummerDesignDay
8,1129182.1561338278
1648,0.0
2,1, 7,21, 0, 5,40.00,50.00,SummerDesignDay
8,1129182.1561338278
1648,0.0
2,1, 7,21, 0, 5,50.00,60.00,SummerDesignDay
8,1129182.1561338278
1648,0.0
2,1, 7,21, 0, 6, 0.00,10.00,SummerDesignDay
8,1129182.1561338278
1648,0.0
2,1, 7,21, 0, 6,10.00,20.00,SummerDesignDay
8,1129182.1561338278
1648,0.0
2,1, 7,21, 0, 6,20.00,30.00,SummerDesignDay
8,1129182.1561338278
1648,0.0
2,1, 7,21, 0, 6,30.00,40.00,SummerDesignDay
8,1129182.1561338278
1648,0.0
2,1, 7,21, 0, 6,40.00,50.00,SummerDesignDay
8,1129182.1561338278
1648,0.0
2,1, 7,21, 0, 6,50.00,60.00,SummerDesignDay
8,1129182.1561338278
1648,0.0
2,1, 7,21, 0, 7, 0.00,10.00,SummerDesignDay
8,1129182.1561338278
1648,0.0
2,1, 7,21, 0, 7,10.00,20.00,SummerDesignDay
8,1129182.1561338278
1648,0.0
2,1, 7,21, 0, 7,20.00,30.00,SummerDesignDay
8,1129182.1561338278
1648,0.0
2,1, 7,21, 0, 7,30.00,40.00,SummerDesignDay
8,1129182.1561338278
1648,0.0
2,1, 7,21, 0, 7,40.00,50.00,SummerDesignDay
8,1129182.1561338278
1648,0.0
2,1, 7,21, 0, 7,50.00,60.00,SummerDesignDay
8,1129182.1561338278
1648,0.0
2,1, 7,21, 0, 8, 0.00,10.00,SummerDesignDay
8,1129182.1561338278
1648,14481738.137447027
2,1, 7,21, 0, 8,10.00,20.00,SummerDesignDay
8,1129182.1561338278
1648,9666658.641412864
2,1, 7,21, 0, 8,20.00,30.00,SummerDesignDay
8,1129182.1561338278
1648,10550325.473488335
2,1, 7,21, 0, 8,30.00,40.00,SummerDesignDay
8,1129182.1561338278
1648,9134204.3896105
2,1, 7,21, 0, 8,40.00,50.00,SummerDesignDay
8,1129182.1561338278
1648,9574281.67823924
2,1, 7,21, 0, 8,50.00,60.00,SummerDesignDay
8,1129182.1561338278
1648,9759629.216377582
2,1, 7,21, 0, 9, 0.00,10.00,SummerDesignDay
8,11291821.561338281
1648,10172167.253135378
2,1, 7,21, 0, 9,10.00,20.00,SummerDesignDay
8,11291821.561338281
1648,10479986.97618672
2,1, 7,21, 0, 9,20.00,30.00,SummerDesignDay
8,11291821.561338281
1648,10735153.32347656
2,1, 7,21, 0, 9,30.00,40.00,SummerDesignDay
8,11291821.561338281
1648,11933044.63581013
2,1, 7,21, 0, 9,40.00,50.00,SummerDesignDay
8,11291821.561338281
1648,15162541.356771609
2,1, 7,21, 0, 9,50.00,60.00,SummerDesignDay
8,11291821.561338281
1648,20591210.72787913
2,1, 7,21, 0,10, 0.00,10.00,SummerDesignDay
8,20325278.810408894
1648,38121909.95594215
2,1, 7,21, 0,10,10.00,20.00,SummerDesignDay
8,20325278.810408894
1648,46970781.21092589
2,1, 7,21, 0,10,20.00,30.00,SummerDesignDay
8,20325278.810408894
1648,53768167.13176901
2,1, 7,21, 0,10,30.00,40.00,SummerDesignDay
8,20325278.810408894
1648,61338116.8833032
2,1, 7,21, 0,10,40.00,50.00,SummerDesignDay
8,20325278.810408894
1648,67791849.81372103
2,1, 7,21, 0,10,50.00,60.00,SummerDesignDay
8,20325278.810408894
1648,73759800.57344428
2,1, 7,21, 0,11, 0.00,10.00,SummerDesignDay
8,20325278.810408894
1648,80138915.41615891
2,1, 7,21, 0,11,10.00,20.00,SummerDesignDay
8,20325278.810408894
1648,85204074.66057579
2,1, 7,21, 0,11,20.00,30.00,SummerDesignDay
8,20325278.810408894
1648,89874574.46172965
2,1, 7,21, 0,11,30.00,40.00,SummerDesignDay
8,20325278.810408894
1648,93963855.88263859
2,1, 7,21, 0,11,40.00,50.00,SummerDesignDay
8,20325278.810408894
1648,97286285.12932886
2,1, 7,21, 0,11,50.00,60.00,SummerDesignDay
8,20325278.810408894
1648,99644603.47626063
2,1, 7,21, 0,12, 0.00,10.00,SummerDesignDay
8,20325278.810408894
1648,99963995.91650045
2,1, 7,21, 0,12,10.00,20.00,SummerDesignDay
8,20325278.810408894
1648,100477649.44950825
2,1, 7,21, 0,12,20.00,30.00,SummerDesignDay
8,20325278.810408894
1648,101336456.06280786
2,1, 7,21, 0,12,30.00,40.00,SummerDesignDay
8,20325278.810408894
1648,102425096.89926174
2,1, 7,21, 0,12,40.00,50.00,SummerDesignDay
8,20325278.810408894
1648,103591468.37343013
2,1, 7,21, 0,12,50.00,60.00,SummerDesignDay
8,20325278.810408894
1648,104732530.23884325
2,1, 7,21, 0,13, 0.00,10.00,SummerDesignDay
8,20325278.810408894
1648,106187006.29114218
2,1, 7,21, 0,13,10.00,20.00,SummerDesignDay
8,20325278.810408894
1648,107179502.74428836
2,1, 7,21, 0,13,20.00,30.00,SummerDesignDay
8,20325278.810408894
1648,108087467.27082749
2,1, 7,21, 0,13,30.00,40.00,SummerDesignDay
8,20325278.810408894
1648,108876573.37981206
2,1, 7,21, 0,13,40.00,50.00,SummerDesignDay
8,20325278.810408894
1648,109575617.75008602
2,1, 7,21, 0,13,50.00,60.00,SummerDesignDay
8,20325278.810408894
1648,110197700.74251834
2,1, 7,21, 0,14, 0.00,10.00,SummerDesignDay
8,20325278.810408894
1648,110567634.02986962
2,1, 7,21, 0,14,10.00,20.00,SummerDesignDay
8,20325278.810408894
1648,110851208.94451897
2,1, 7,21, 0,14,20.00,30.00,SummerDesignDay
8,20325278.810408894
1648,111046322.40704128
2,1, 7,21, 0,14,30.00,40.00,SummerDesignDay
8,20325278.810408894
1648,111144690.50127032
2,1, 7,21, 0,14,40.00,50.00,SummerDesignDay
8,20325278.810408894
1648,111138430.53583023
2,1, 7,21, 0,14,50.00,60.00,SummerDesignDay
8,20325278.810408894
1648,111019815.34828313
2,1, 7,21, 0,15, 0.00,10.00,SummerDesignDay
8,20325278.810408894
1648,110495050.21027489
2,1, 7,21, 0,15,10.00,20.00,SummerDesignDay
8,20325278.810408894
1648,109837915.4488119
2,1, 7,21, 0,15,20.00,30.00,SummerDesignDay
8,20325278.810408894
1648,109046311.48040423
2,1, 7,21, 0,15,30.00,40.00,SummerDesignDay
8,20325278.810408894
1648,108116658.50548987
2,1, 7,21, 0,15,40.00,50.00,SummerDesignDay
8,20325278.810408894
1648,107047315.57817443
2,1, 7,21, 0,15,50.00,60.00,SummerDesignDay
8,20325278.810408894
1648,105838184.53239323
2,1, 7,21, 0,16, 0.00,10.00,SummerDesignDay
8,20325278.810408894
1648,104149854.72556233
2,1, 7,21, 0,16,10.00,20.00,SummerDesignDay
8,20325278.810408894
1648,102320773.85834439
2,1, 7,21, 0,16,20.00,30.00,SummerDesignDay
8,20325278.810408894
1648,100363848.10835962
2,1, 7,21, 0,16,30.00,40.00,SummerDesignDay
8,20325278.810408894
1648,98288864.72685185
2,1, 7,21, 0,16,40.00,50.00,SummerDesignDay
8,20325278.810408894
1648,96108476.4204609
2,1, 7,21, 0,16,50.00,60.00,SummerDesignDay
8,20325278.810408894
1648,93837050.36653647
2,1, 7,21, 0,17, 0.00,10.00,SummerDesignDay
8,20325278.810408894
1648,91589380.25176907
2,1, 7,21, 0,17,10.00,20.00,SummerDesignDay
8,20325278.810408894
1648,89087016.62964433
2,1, 7,21, 0,17,20.00,30.00,SummerDesignDay
8,20325278.810408894
1648,86546966.77142437
2,1, 7,21, 0,17,30.00,40.00,SummerDesignDay
8,20325278.810408894
1648,83971194.37713414
2,1, 7,21, 0,17,40.00,50.00,SummerDesignDay
8,20325278.810408894
1648,81330324.08042285
2,1, 7,21, 0,17,50.00,60.00,SummerDesignDay
8,20325278.810408894
1648,78588771.85704577
2,1, 7,21, 0,18, 0.00,10.00,SummerDesignDay
8,20325278.810408894
1648,75102213.81686766
2,1, 7,21, 0,18,10.00,20.00,SummerDesignDay
8,20325278.810408894
1648,71795805.21262364
2,1, 7,21, 0,18,20.00,30.00,SummerDesignDay
8,20325278.810408894
1648,68511077.178468
2,1, 7,21, 0,18,30.00,40.00,SummerDesignDay
8,20325278.810408894
1648,65419958.0410257
2,1, 7,21, 0,18,40.00,50.00,SummerDesignDay
8,20325278.810408894
1648,62538606.16385031
2,1, 7,21, 0,18,50.00,60.00,SummerDesignDay
8,20325278.810408894
1648,59652672.95901255
2,1, 7,21, 0,19, 0.00,10.00,SummerDesignDay
8,20325278.810408894
1648,56015110.66776554
2,1, 7,21, 0,19,10.00,20.00,SummerDesignDay
8,20325278.810408894
1648,53132935.462803386
2,1, 7,21, 0,19,20.00,30.00,SummerDesignDay
8,20325278.810408894
1648,50384049.10454252
2,1, 7,21, 0,19,30.00,40.00,SummerDesignDay
8,20325278.810408894
1648,47732183.50407123
2,1, 7,21, 0,19,40.00,50.00,SummerDesignDay
8,20325278.810408894
1648,45154672.207476504
2,1, 7,21, 0,19,50.00,60.00,SummerDesignDay
8,20325278.810408894
1648,42599065.337738454
2,1, 7,21, 0,20, 0.00,10.00,SummerDesignDay
8,13550185.873605939
1648,34701699.199328996
2,1, 7,21, 0,20,10.00,20.00,SummerDesignDay
8,13550185.873605939
1648,31345377.01775595
2,1, 7,21, 0,20,20.00,30.00,SummerDesignDay
8,13550185.873605939
1648,28096377.181803502
2,1, 7,21, 0,20,30.00,40.00,SummerDesignDay
8,13550185.873605939
1648,24704308.310523152
2,1, 7,21, 0,20,40.00,50.00,SummerDesignDay
8,13550185.873605939
1648,21134665.989089325
2,1, 7,21, 0,20,50.00,60.00,SummerDesignDay
8,13550185.873605939
1648,17085478.36007122
2,1, 7,21, 0,21, 0.00,10.00,SummerDesignDay
8,11291821.561338281
1648,11029332.195781583
2,1, 7,21, 0,21,10.00,20.00,SummerDesignDay
8,11291821.561338281
1648,6163038.347176568
2,1, 7,21, 0,21,20.00,30.00,SummerDesignDay
8,11291821.561338281
1648,2142051.5207751333
2,1, 7,21, 0,21,30.00,40.00,SummerDesignDay
8,11291821.561338281
1648,92882.05710201434
2,1, 7,21, 0,21,40.00,50.00,SummerDesignDay
8,11291821.561338281
1648,0.0
2,1, 7,21, 0,21,50.00,60.00,SummerDesignDay
8,11291821.561338281
1648,0.0
2,1, 7,21, 0,22, 0.00,10.00,SummerDesignDay
8,1129182.1561338278
1648,0.0
2,1, 7,21, 0,22,10.00,20.00,SummerDesignDay
8,1129182.1561338278
1648,0.0
2,1, 7,21, 0,22,20.00,30.00,SummerDesignDay
8,1129182.1561338278
1648,0.0
2,1, 7,21, 0,22,30.00,40.00,SummerDesignDay
8,1129182.1561338278
1648,0.0
2,1, 7,21, 0,22,40.00,50.00,SummerDesignDay
8,1129182.1561338278
1648,0.0
2,1, 7,21, 0,22,50.00,60.00,SummerDesignDay
8,1129182.1561338278
1648,0.0
2,1, 7,21, 0,23, 0.00,10.00,SummerDesignDay
8,1129182.1561338278
1648,0.0
2,1, 7,21, 0,23,10.00,20.00,SummerDesignDay
8,1129182.1561338278
1648,0.0
2,1, 7,21, 0,23,20.00,30.00,SummerDesignDay
8,1129182.1561338278
1648,0.0
2,1, 7,21, 0,23,30.00,40.00,SummerDesignDay
8,1129182.1561338278
1648,0.0
2,1, 7,21, 0,23,40.00,50.00,SummerDesignDay
8,1129182.1561338278
1648,0.0
2,1, 7,21, 0,23,50.00,60.00,SummerDesignDay
8,1129182.1561338278
1648,0.0
2,1, 7,21, 0,24, 0.00,10.00,SummerDesignDay
8,1129182.1561338278
1648,0.0
2,1, 7,21, 0,24,10.00,20.00,SummerDesignDay
8,1129182.1561338278
1648,0.0
2,1, 7,21, 0,24,20.00,30.00,SummerDesignDay
8,1129182.1561338278
1648,0.0
2,1, 7,21, 0,24,30.00,40.00,SummerDesignDay
8,1129182.1561338278
1648,0.0
2,1, 7,21, 0,24,40.00,50.00,SummerDesignDay
8,1129182.1561338278
1648,0.0
2,1, 7,21, 0,24,50.00,60.00,SummerDesignDay
8,1129182.1561338278
1648,0.0
1,CALGARY INTL AP ANN HTG 99.6% CONDNS DB HVAC Sizing Pass 1,  51.11,-114.02,  -7.00,1084.10
2,1, 1,21, 0, 1, 0.00,10.00,WinterDesignDay
8,1129182.1561338278
1648,0.0
2,1, 1,21, 0, 1,10.00,20.00,WinterDesignDay
8,1129182.1561338278
1648,0.0
2,1, 1,21, 0, 1,20.00,30.00,WinterDesignDay
8,1129182.1561338278
1648,0.0
2,1, 1,21, 0, 1,30.00,40.00,WinterDesignDay
8,1129182.1561338278
1648,0.0
2,1, 1,21, 0, 1,40.00,50.00,WinterDesignDay
8,1129182.1561338278
1648,0.0
2,1, 1,21, 0, 1,50.00,60.00,WinterDesignDay
8,1129182.1561338278
1648,0.0
2,1, 1,21, 0, 2, 0.00,10.00,WinterDesignDay
8,1129182.1561338278
1648,0.0
2,1, 1,21, 0, 2,10.00,20.00,WinterDesignDay
8,1129182.1561338278
1648,0.0
2,1, 1,21, 0, 2,20.00,30.00,WinterDesignDay
8,1129182.1561338278
1648,0.0
2,1, 1,21, 0, 2,30.00,40.00,WinterDesignDay
8,1129182.1561338278
1648,0.0
2,1, 1,21, 0, 2,40.00,50.00,WinterDesignDay
8,1129182.1561338278
1648,0.0
2,1, 1,21, 0, 2,50.00,60.00,WinterDesignDay
8,1129182.1561338278
1648,0.0
2,1, 1,21, 0, 3, 0.00,10.00,WinterDesignDay
8,1129182.1561338278
1648,0.0
2,1, 1,21, 0, 3,10.00,20.00,WinterDesignDay
8,1129182.1561338278
1648,0.0
2,1, 1,21, 0, 3,20.00,30.00,WinterDesignDay
8,1129182.1561338278
1648,0.0
2,1, 1,21, 0, 3,30.00,40.00,WinterDesignDay
8,1129182.1561338278
1648,0.0
2,1, 1,21, 0, 3,40.00,50.00,WinterDesignDay
8,1129182.1561338278
1648,0.0
2,1, 1,21, 0, 3,50.00,60.00,WinterDesignDay
8,1129182.1561338278
1648,0.0
2,1, 1,21, 0, 4, 0.00,10.00,WinterDesignDay
8,1129182.1561338278
1648,0.0
2,1, 1,21, 0, 4,10.00,20.00,WinterDesignDay
8,1129182.1561338278
1648,0.0
2,1, 1,21, 0, 4,20.00,30.00,WinterDesignDay
8,1129182.1561338278
1648,0.0
2,1, 1,21, 0, 4,30.00,40.00,WinterDesignDay
8,1129182.1561338278
1648,0.0
2,1, 1,21, 0, 4,40.00,50.00,WinterDesignDay
8,1129182.1561338278
1648,0.0
2,1, 1,21, 0, 4,50.00,60.00,WinterDesignDay
8,1129182.1561338278
1648,0.0
2,1, 1,21, 0, 5, 0.00,10.00,WinterDesignDay
8,1129182.1561338278
1648,0.0
2,1, 1,21, 0, 5,10.00,20.00,WinterDesignDay
8,1129182.1561338278
1648,0.0
2,1, 1,21, 0, 5,20.00,30.00,WinterDesignDay
8,1129182.1561338278
1648,0.0
2,1, 1,21, 0, 5,30.00,40.00,WinterDesignDay
8,1129182.1561338278
1648,0.0
2,1, 1,21, 0, 5,40.00,50.00,WinterDesignDay
8,1129182.1561338278
1648,0.0
2,1, 1,21, 0, 5,50.00,60.00,WinterDesignDay
8,1129182.1561338278
1648,0.0
2,1, 1,21, 0, 6, 0.00,10.00,WinterDesignDay
8,1129182.1561338278
1648,0.0
2,1, 1,21, 0, 6,10.00,20.00,WinterDesignDay
8,1129182.1561338278
1648,0.0
2,1, 1,21, 0, 6,20.00,30.00,WinterDesignDay
8,1129182.1561338278
1648,0.0
2,1, 1,21, 0, 6,30.00,40.00,WinterDesignDay
8,1129182.1561338278
1648,0.0
2,1, 1,21, 0, 6,40.00,50.00,WinterDesignDay
8,1129182.1561338278
1648,0.0
2,1, 1,21, 0, 6,50.00,60.00,WinterDesignDay
8,1129182.1561338278
1648,0.0
2,1, 1,21, 0, 7, 0.00,10.00,WinterDesignDay
8,1129182.1561338278
1648,0.0
2,1, 1,21, 0, 7,10.00,20.00,WinterDesignDay
8,1129182.1561338278
1648,0.0
2,1, 1,21, 0, 7,20.00,30.00,WinterDesignDay
8,1129182.1561338278
1648,0.0
2,1, 1,21, 0, 7,30.00,40.00,WinterDesignDay
8,1129182.1561338278
1648,0.0
2,1, 1,21, 0, 7,40.00,50.00,WinterDesignDay
8,1129182.1561338278
1648,0.0
2,1, 1,21, 0, 7,50.00,60.00,WinterDesignDay
8,1129182.1561338278
1648,0.0
2,1, 1,21, 0, 8, 0.00,10.00,WinterDesignDay
8,1129182.1561338278
1648,0.0
2,1, 1,21, 0, 8,10.00,20.00,WinterDesignDay
8,1129182.1561338278
1648,0.0
2,1, 1,21, 0, 8,20.00,30.00,WinterDesignDay
8,1129182.1561338278
1648,0.0
2,1, 1,21, 0, 8,30.00,40.00,WinterDesignDay
8,1129182.1561338278
1648,0.0
2,1, 1,21, 0, 8,40.00,50.00,WinterDesignDay
8,1129182.1561338278
1648,0.0
2,1, 1,21, 0, 8,50.00,60.00,WinterDesignDay
8,1129182.1561338278
1648,0.0
2,1, 1,21, 0, 9, 0.00,10.00,WinterDesignDay
8,11291821.561338281
1648,0.0
2,1, 1,21, 0, 9,10.00,20.00,WinterDesignDay
8,11291821.561338281
1648,0.0
2,1, 1,21, 0, 9,20.00,30.00,WinterDesignDay
8,11291821.561338281
1648,0.0
2,1, 1,21, 0, 9,30.00,40.00,WinterDesignDay
8,11291821.561338281
1648,0.0
2,1, 1,21, 0, 9,40.00,50.00,WinterDesignDay
8,11291821.561338281
1648,0.0
2,1, 1,21, 0, 9,50.00,60.00,WinterDesignDay
8,11291821.561338281
1648,0.0
2,1, 1,21, 0,10, 0.00,10.00,WinterDesignDay
8,20325278.810408894
1648,0.0
2,1, 1,21, 0,10,10.00,20.00,WinterDesignDay
8,20325278.810408894
1648,0.0
2,1, 1,21, 0,10,20.00,30.00,WinterDesignDay
8,20325278.810408894
1648,0.0
2,1, 1,21, 0,10,30.00,40.00,WinterDesignDay
8,20325278.810408894
1648,0.0
2,1, 1,21, 0,10,40.00,50.00,WinterDesignDay
8,20325278.810408894
1648,0.0
2,1, 1,21, 0,10,50.00,60.00,WinterDesignDay
8,20325278.810408894
1648,0.0
2,1, 1,21, 0,11, 0.00,10.00,WinterDesignDay
8,20325278.810408894
1648,0.0
2,1, 1,21, 0,11,10.00,20.00,WinterDesignDay
8,20325278.810408894
1648,0.0
2,1, 1,21, 0,11,20.00,30.00,WinterDesignDay
8,20325278.810408894
1648,0.0
2,1, 1,21, 0,11,30.00,40.00,WinterDesignDay
8,20325278.810408894
1648,0.0
2,1, 1,21, 0,11,40.00,50.00,WinterDesignDay
8,20325278.810408894
1648,0.0
2,1, 1,21, 0,11,50.00,60.00,WinterDesignDay
8,20325278.810408894
1648,0.0
2,1, 1,21, 0,12, 0.00,10.00,WinterDesignDay
8,20325278.810408894
1648,0.0
2,1, 1,21, 0,12,10.00,20.00,WinterDesignDay
8,20325278.810408894
1648,0.0
2,1, 1,21, 0,12,20.00,30.00,WinterDesignDay
8,20325278.810408894
1648,0.0
2,1, 1,21, 0,12,30.00,40.00,WinterDesignDay
8,20325278.810408894
1648,0.0
2,1, 1,21, 0,12,40.00,50.00,WinterDesignDay
8,20325278.810408894
1648,0.0