Program Version,EnergyPlus, Version 23.2.0-7636e6b3e9, YMD=2025.01.14 17:12
1,5,Environment Title[],Latitude[deg],Longitude[deg],Time Zone[],Elevation[m]
2,8,Day of Simulation[],Month[],Day of Month[],DST Indicator[1=yes 0=no],Hour[],StartMinute[],EndMinute[],DayType
3,5,Cumulative Day of Simulation[],Month[],Day of Month[],DST Indicator[1=yes 0=no],DayType  ! When Daily Report Variables Requested
4,2,Cumulative Days of Simulation[],Month[]  ! When Monthly Report Variables Requested
5,1,Cumulative Days of Simulation[] ! When Run Period Report Variables Requested
6,1,Calendar Year of Simulation[] ! When Annual Report Variables Requested
8,1,Electricity:Facility [J] !TimeStep
End of Data Dictionary
1,RUN PERIOD 1,  46.80, -71.38,  -5.00,  74.40
2,1, 1, 1, 0, 1, 0.00,10.00,Wednesday
8,30585518.078674763
2,1, 1, 1, 0, 1,10.00,20.00,Wednesday
8,28896867.697408564
2,1, 1, 1, 0, 1,20.00,30.00,Wednesday
8,26668186.528732233
2,1, 1, 1, 0, 1,30.00,40.00,Wednesday
8,24549218.369219474
2,1, 1, 1, 0, 1,40.00,50.00,Wednesday
8,21680732.72041328
2,1, 1, 1, 0, 1,50.00,60.00,Wednesday
8,18492952.732873067
2,1, 1, 1, 0, 2, 0.00,10.00,Wednesday
8,18749353.898014512
2,1, 1, 1, 0, 2,10.00,20.00,Wednesday
8,18464843.903275654
2,1, 1, 1, 0, 2,20.00,30.00,Wednesday
8,17759768.930608224
2,1, 1, 1, 0, 2,30.00,40.00,Wednesday
8,16734837.361315815
2,1, 1, 1, 0, 2,40.00,50.00,Wednesday
8,15965437.348667976
2,1, 1, 1, 0, 2,50.00,60.00,Wednesday
8,15398796.39493339
2,1, 1, 1, 0, 3, 0.00,10.00,Wednesday
8,15979671.10408243
2,1, 1, 1, 0, 3,10.00,20.00,Wednesday
8,15769262.678477464
2,1, 1, 1, 0, 3,20.00,30.00,Wednesday
8,15832766.242171021
2,1, 1, 1, 0, 3,30.00,40.00,Wednesday
8,16067249.433892941
2,1, 1, 1, 0, 3,40.00,50.00,Wednesday
8,16296312.913115991
2,1, 1, 1, 0, 3,50.00,60.00,Wednesday
8,15953205.256308204
2,1, 1, 1, 0, 4, 0.00,10.00,Wednesday
8,16146410.583165279
2,1, 1, 1, 0, 4,10.00,20.00,Wednesday
8,16350955.96476873
2,1, 1, 1, 0, 4,20.00,30.00,Wednesday
8,16617536.091933811
2,1, 1, 1, 0, 4,30.00,40.00,Wednesday
8,16233762.577057078
2,1, 1, 1, 0, 4,40.00,50.00,Wednesday
8,16245326.207793003
2,1, 1, 1, 0, 4,50.00,60.00,Wednesday
8,16390342.819913335
2,1, 1, 1, 0, 5, 0.00,10.00,Wednesday
8,18048686.554902807
2,1, 1, 1, 0, 5,10.00,20.00,Wednesday
8,18936917.44390147
2,1, 1, 1, 0, 5,20.00,30.00,Wednesday
8,20237292.532617457
2,1, 1, 1, 0, 5,30.00,40.00,Wednesday
8,21660894.825552005
2,1, 1, 1, 0, 5,40.00,50.00,Wednesday
8,23269344.82751802
2,1, 1, 1, 0, 5,50.00,60.00,Wednesday
8,24160125.793039955
2,1, 1, 1, 0, 6, 0.00,10.00,Wednesday
8,22861446.554237396
2,1, 1, 1, 0, 6,10.00,20.00,Wednesday
8,21683055.6983472
2,1, 1, 1, 0, 6,20.00,30.00,Wednesday
8,20717857.56960482
2,1, 1, 1, 0, 6,30.00,40.00,Wednesday
8,18985581.337054495
2,1, 1, 1, 0, 6,40.00,50.00,Wednesday
8,17697686.47973527
2,1, 1, 1, 0, 6,50.00,60.00,Wednesday
8,16520232.192854078
2,1, 1, 1, 0, 7, 0.00,10.00,Wednesday
8,17738005.832367405
2,1, 1, 1, 0, 7,10.00,20.00,Wednesday
8,18129456.83099971
2,1, 1, 1, 0, 7,20.00,30.00,Wednesday
8,18966000.98651608
2,1, 1, 1, 0, 7,30.00,40.00,Wednesday
8,19920939.952018786
2,1, 1, 1, 0, 7,40.00,50.00,Wednesday
8,21110539.63144365
2,1, 1, 1, 0, 7,50.00,60.00,Wednesday
8,21495988.607204515
2,1, 1, 1, 0, 8, 0.00,10.00,Wednesday
8,78094623.87419476
2,1, 1, 1, 0, 8,10.00,20.00,Wednesday
8,41796844.83269218
2,1, 1, 1, 0, 8,20.00,30.00,Wednesday
8,45150439.00101298
2,1, 1, 1, 0, 8,30.00,40.00,Wednesday
8,36275204.93844658
2,1, 1, 1, 0, 8,40.00,50.00,Wednesday
8,33266136.243498158
2,1, 1, 1, 0, 8,50.00,60.00,Wednesday
8,31491767.260005895
2,1, 1, 1, 0, 9, 0.00,10.00,Wednesday
8,79639999.29378848
2,1, 1, 1, 0, 9,10.00,20.00,Wednesday
8,59856323.62626318
2,1, 1, 1, 0, 9,20.00,30.00,Wednesday
8,38817945.311144456
2,1, 1, 1, 0, 9,30.00,40.00,Wednesday
8,45145814.283116125
2,1, 1, 1, 0, 9,40.00,50.00,Wednesday
8,40408984.448639154
2,1, 1, 1, 0, 9,50.00,60.00,Wednesday
8,38647562.84525651
2,1, 1, 1, 0,10, 0.00,10.00,Wednesday
8,97611057.64940785
2,1, 1, 1, 0,10,10.00,20.00,Wednesday
8,91688596.55770728
2,1, 1, 1, 0,10,20.00,30.00,Wednesday
8,95914976.0697845
2,1, 1, 1, 0,10,30.00,40.00,Wednesday
8,95084634.28535724
2,1, 1, 1, 0,10,40.00,50.00,Wednesday
8,96204497.54951628
2,1, 1, 1, 0,10,50.00,60.00,Wednesday
8,97401769.855178
2,1, 1, 1, 0,11, 0.00,10.00,Wednesday
8,94265902.87991506
2,1, 1, 1, 0,11,10.00,20.00,Wednesday
8,93722851.35281366
2,1, 1, 1, 0,11,20.00,30.00,Wednesday
8,93496798.34817493
2,1, 1, 1, 0,11,30.00,40.00,Wednesday
8,93181864.99501544
2,1, 1, 1, 0,11,40.00,50.00,Wednesday
8,92880792.5276657
2,1, 1, 1, 0,11,50.00,60.00,Wednesday
8,92585826.2820309
2,1, 1, 1, 0,12, 0.00,10.00,Wednesday
8,90371270.30983223
2,1, 1, 1, 0,12,10.00,20.00,Wednesday
8,89315471.72693053
2,1, 1, 1, 0,12,20.00,30.00,Wednesday
8,88325155.48450083
2,1, 1, 1, 0,12,30.00,40.00,Wednesday
8,87817514.889229
2,1, 1, 1, 0,12,40.00,50.00,Wednesday
8,87582346.20501736
2,1, 1, 1, 0,12,50.00,60.00,Wednesday
8,87408520.84009555
2,1, 1, 1, 0,13, 0.00,10.00,Wednesday
8,89042358.23841448
2,1, 1, 1, 0,13,10.00,20.00,Wednesday
8,90460102.22618295
2,1, 1, 1, 0,13,20.00,30.00,Wednesday
8,92088137.24833521
2,1, 1, 1, 0,13,30.00,40.00,Wednesday
8,93385787.56765452
2,1, 1, 1, 0,13,40.00,50.00,Wednesday
8,94555082.34666453
2,1, 1, 1, 0,13,50.00,60.00,Wednesday
8,95717212.51275948
2,1, 1, 1, 0,14, 0.00,10.00,Wednesday
8,95848309.37637757
2,1, 1, 1, 0,14,10.00,20.00,Wednesday
8,95748570.44034897
2,1, 1, 1, 0,14,20.00,30.00,Wednesday
8,95571722.36663537
2,1, 1, 1, 0,14,30.00,40.00,Wednesday
8,95413979.65076594
2,1, 1, 1, 0,14,40.00,50.00,Wednesday
8,95178725.32695097
2,1, 1, 1, 0,14,50.00,60.00,Wednesday
8,94975112.1268913
2,1, 1, 1, 0,15, 0.00,10.00,Wednesday
8,95970271.04570949
2,1, 1, 1, 0,15,10.00,20.00,Wednesday
8,97108704.46003461
2,1, 1, 1, 0,15,20.00,30.00,Wednesday
8,98318625.00599034
2,1, 1, 1, 0,15,30.00,40.00,Wednesday
8,99676977.37334348
2,1, 1, 1, 0,15,40.00,50.00,Wednesday
8,101113851.72292197
2,1, 1, 1, 0,15,50.00,60.00,Wednesday
8,102608031.52365196
2,1, 1, 1, 0,16, 0.00,10.00,Wednesday
8,103221501.41841935
2,1, 1, 1, 0,16,10.00,20.00,Wednesday
8,103846501.11663355
2,1, 1, 1, 0,16,20.00,30.00,Wednesday
8,104510779.96971801
2,1, 1, 1, 0,16,30.00,40.00,Wednesday
8,105315071.60712937
2,1, 1, 1, 0,16,40.00,50.00,Wednesday
8,106169922.06940614
2,1, 1, 1, 0,16,50.00,60.00,Wednesday
8,107046002.78943938
2,1, 1, 1, 0,17, 0.00,10.00,Wednesday
8,110466895.727571
2,1, 1, 1, 0,17,10.00,20.00,Wednesday
8,113288674.2528865
2,1, 1, 1, 0,17,20.00,30.00,Wednesday
8,115822918.04430999
2,1, 1, 1, 0,17,30.00,40.00,Wednesday
8,118268806.36351176
2,1, 1, 1, 0,17,40.00,50.00,Wednesday
8,120638459.902415
2,1, 1, 1, 0,17,50.00,60.00,Wednesday
8,122413878.44934891
2,1, 1, 1, 0,18, 0.00,10.00,Wednesday
8,122048449.33924076
2,1, 1, 1, 0,18,10.00,20.00,Wednesday
8,121322411.89545958
2,1, 1, 1, 0,18,20.00,30.00,Wednesday
8,120502798.12839782
2,1, 1, 1, 0,18,30.00,40.00,Wednesday
8,119584651.47959174
2,1, 1, 1, 0,18,40.00,50.00,Wednesday
8,118643955.68051457
2,1, 1, 1, 0,18,50.00,60.00,Wednesday
8,117686115.64626774
2,1, 1, 1, 0,19, 0.00,10.00,Wednesday
8,117689388.60485294
2,1, 1, 1, 0,19,10.00,20.00,Wednesday
8,117759709.48837957
2,1, 1, 1, 0,19,20.00,30.00,Wednesday
8,117216093.2740104
2,1, 1, 1, 0,19,30.00,40.00,Wednesday
8,117248880.85895085
2,1, 1, 1, 0,19,40.00,50.00,Wednesday
8,117381446.48789914
2,1, 1, 1, 0,19,50.00,60.00,Wednesday
8,117200416.90192099
2,1, 1, 1, 0,20, 0.00,10.00,Wednesday
8,95743521.09328613
2,1, 1, 1, 0,20,10.00,20.00,Wednesday
8,94953372.67983045
2,1, 1, 1, 0,20,20.00,30.00,Wednesday
8,96279618.41878575
2,1, 1, 1, 0,20,30.00,40.00,Wednesday
8,95841347.99321058
2,1, 1, 1, 0,20,40.00,50.00,Wednesday
8,96795229.3972054
2,1, 1, 1, 0,20,50.00,60.00,Wednesday
8,95707603.59022042
2,1, 1, 1, 0,21, 0.00,10.00,Wednesday
8,96496935.62174131
2,1, 1, 1, 0,21,10.00,20.00,Wednesday
8,99125864.5395994
2,1, 1, 1, 0,21,20.00,30.00,Wednesday
8,100526859.71432583
2,1, 1, 1, 0,21,30.00,40.00,Wednesday
8,101709885.19472629
2,1, 1, 1, 0,21,40.00,50.00,Wednesday
8,103632574.75575799
2,1, 1, 1, 0,21,50.00,60.00,Wednesday
8,104530439.19713627
2,1, 1, 1, 0,22, 0.00,10.00,Wednesday
8,9176041.5479544
2,1, 1, 1, 0,22,10.00,20.00,Wednesday
8,10124927.10535172
2,1, 1, 1, 0,22,20.00,30.00,Wednesday
8,12032892.989524594
2,1, 1, 1, 0,22,30.00,40.00,Wednesday
8,17838321.81123994
2,1, 1, 1, 0,22,40.00,50.00,Wednesday
8,34507615.411975965
2,1, 1, 1, 0,22,50.00,60.00,Wednesday
8,24173072.603647523
2,1, 1, 1, 0,23, 0.00,10.00,Wednesday
8,28283229.689962685
2,1, 1, 1, 0,23,10.00,20.00,Wednesday
8,31059961.08837685
2,1, 1, 1, 0,23,20.00,30.00,Wednesday
8,32395254.60651003
2,1, 1, 1, 0,23,30.00,40.00,Wednesday
8,32646324.89603116
2,1, 1, 1, 0,23,40.00,50.00,Wednesday
8,33377964.63874524
2,1, 1, 1, 0,23,50.00,60.00,Wednesday
8,34067767.39273452
2,1, 1, 1, 0,24, 0.00,10.00,Wednesday
8,35886390.269718304
2,1, 1, 1, 0,24,10.00,20.00,Wednesday
8,35224251.69915129
2,1, 1, 1, 0,24,20.00,30.00,Wednesday
8,34713054.71776846
2,1, 1, 1, 0,24,30.00,40.00,Wednesday
8,34203050.86323638
2,1, 1, 1, 0,24,40.00,50.00,Wednesday
8,34037676.48908724
2,1, 1, 1, 0,24,50.00,60.00,Wednesday
8,32874222.21051931
2,2, 1, 2, 0, 1, 0.00,10.00,Thursday
8,34904069.56539051
2,2, 1, 2, 0, 1,10.00,20.00,Thursday
8,36201313.472753316
2,2, 1, 2, 0, 1,20.00,30.00,Thursday
8,37700227.34026435
2,2, 1, 2, 0, 1,30.00,40.00,Thursday
8,38250855.8795308
2,2, 1, 2, 0, 1,40.00,50.00,Thursday
8,39255455.96562403
2,2, 1, 2, 0, 1,50.00,60.00,Thursday
8,40311843.63754096
2,2, 1, 2, 0, 2, 0.00,10.00,Thursday
8,38563703.98083787
2,2, 1, 2, 0, 2,10.00,20.00,Thursday
8,35624349.70059917
2,2, 1, 2, 0, 2,20.00,30.00,Thursday
8,33107955.204438828
2,2, 1, 2, 0, 2,30.00,40.00,Thursday
8,30674590.710832067
2,2, 1, 2, 0, 2,40.00,50.00,Thursday
8,28521148.082228396
2,2, 1, 2, 0, 2,50.00,60.00,Thursday
8,25524893.786670845
2,2, 1, 2, 0, 3, 0.00,10.00,Thursday
8,25713085.5391448
2,2, 1, 2, 0, 3,10.00,20.00,Thursday
8,25848558.3240207
2,2, 1, 2, 0, 3,20.00,30.00,Thursday
8,26220387.34692982
2,2, 1, 2, 0, 3,30.00,40.00,Thursday
8,25767910.49779558
2,2, 1, 2, 0, 3,40.00,50.00,Thursday
8,25767086.799687564
2,2, 1, 2, 0, 3,50.00,60.00,Thursday
8,25865033.343844444
2,2, 1, 2, 0, 4, 0.00,10.00,Thursday
8,25040776.69851196
2,2, 1, 2, 0, 4,10.00,20.00,Thursday
8,23356392.03190008
2,2, 1, 2, 0, 4,20.00,30.00,Thursday
8,22119081.08001515
2,2, 1, 2, 0, 4,30.00,40.00,Thursday
8,20990966.585064724
2,2, 1, 2, 0, 4,40.00,50.00,Thursday
8,20102229.090836238
2,2, 1, 2, 0, 4,50.00,60.00,Thursday
8,18441747.686346658
2,2, 1, 2, 0, 5, 0.00,10.00,Thursday
8,19615615.79528327
2,2, 1, 2, 0, 5,10.00,20.00,Thursday
8,20823134.517519344
2,2, 1, 2, 0, 5,20.00,30.00,Thursday
8,22215843.718382638
2,2, 1, 2, 0, 5,30.00,40.00,Thursday
8,22789932.432598174
2,2, 1, 2, 0, 5,40.00,50.00,Thursday
8,23776794.750944152
2,2, 1, 2, 0, 5,50.00,60.00,Thursday
8,24841869.367466908
2,2, 1, 2, 0, 6, 0.00,10.00,Thursday
8,27024181.679446943
2,2, 1, 2, 0, 6,10.00,20.00,Thursday
8,28425268.19002589
2,2, 1, 2, 0, 6,20.00,30.00,Thursday
8,30241850.00398518
2,2, 1, 2, 0, 6,30.00,40.00,Thursday
8,32137664.09208668
2,2, 1, 2, 0, 6,40.00,50.00,Thursday
8,34219017.30745459
2,2, 1, 2, 0, 6,50.00,60.00,Thursday
8,35493618.28007473
2,2, 1, 2, 0, 7, 0.00,10.00,Thursday
8,34025991.0161441
2,2, 1, 2, 0, 7,10.00,20.00,Thursday
8,32732967.323994584
2,2, 1, 2, 0, 7,20.00,30.00,Thursday
8,31672091.69753493
2,2, 1, 2, 0, 7,30.00,40.00,Thursday
8,29849088.552200854
2,2, 1, 2, 0, 7,40.00,50.00,Thursday
8,28479082.829834275
2,2, 1, 2, 0, 7,50.00,60.00,Thursday
8,27229497.651967373
2,2, 1, 2, 0, 8, 0.00,10.00,Thursday
8,83472997.16390379
2,2, 1, 2, 0, 8,10.00,20.00,Thursday
8,21868795.639540046
2,2, 1, 2, 0, 8,20.00,30.00,Thursday
8,49947015.30237961
2,2, 1, 2, 0, 8,30.00,40.00,Thursday
8,52421888.45073293
2,2, 1, 2, 0, 8,40.00,50.00,Thursday
8,49389119.437253766
2,2, 1, 2, 0, 8,50.00,60.00,Thursday
8,49698068.52934647
2,2, 1, 2, 0, 9, 0.00,10.00,Thursday
8,97217062.91006081
2,2, 1, 2, 0, 9,10.00,20.00,Thursday
8,81859560.77782711
2,2, 1, 2, 0, 9,20.00,30.00,Thursday
8,67671279.07323086
2,2, 1, 2, 0, 9,30.00,40.00,Thursday
8,66625984.817804635
2,2, 1, 2, 0, 9,40.00,50.00,Thursday
8,65060040.07727949
2,2, 1, 2, 0, 9,50.00,60.00,Thursday
8,64728001.48022695
2,2, 1, 2, 0,10, 0.00,10.00,Thursday
8,109237890.80919024
2,2, 1, 2, 0,10,10.00,20.00,Thursday
8,108365768.24159162
2,2, 1, 2, 0,10,20.00,30.00,Thursday
8,108607895.8407529
2,2, 1, 2, 0,10,30.00,40.00,Thursday
8,109283793.01024449
2,2, 1, 2, 0,10,40.00,50.00,Thursday
8,109937747.87846294
2,2, 1, 2, 0,10,50.00,60.00,Thursday
8,110678380.39075176
2,2, 1, 2, 0,11, 0.00,10.00,Thursday
8,108931038.5262896
2,2, 1, 2, 0,11,10.00,20.00,Thursday
8,109423189.46047719
2,2, 1, 2, 0,11,20.00,30.00,Thursday
8,110253539.20668879
2,2, 1, 2, 0,11,30.00,40.00,Thursday
8,111180456.47210883
2,2, 1, 2, 0,11,40.00,50.00,Thursday
8,112098932.66775744
2,2, 1, 2, 0,11,50.00,60.00,Thursday
8,113147104.61580785
2,2, 1, 2, 0,12, 0.00,10.00,Thursday
8,112136714.73137257
2,2, 1, 2, 0,12,10.00,20.00,Thursday
8,111674504.26683939
2,2, 1, 2, 0,12,20.00,30.00,Thursday
8,111336833.83700505
2,2, 1, 2, 0,12,30.00,40.00,Thursday
8,110992379.27110764
2,2, 1, 2, 0,12,40.00,50.00,Thursday
8,110654272.7189701
2,2, 1, 2, 0,12,50.00,60.00,Thursday
8,110365853.5658441
2,2, 1, 2, 0,13, 0.00,10.00,Thursday
8,111306510.333053
2,2, 1, 2, 0,13,10.00,20.00,Thursday
8,112046042.75929482
2,2, 1, 2, 0,13,20.00,30.00,Thursday
8,112933249.34947981
2,2, 1, 2, 0,13,30.00,40.00,Thursday
8,113809137.7433862
2,2, 1, 2, 0,13,40.00,50.00,Thursday
8,114685507.61776575
2,2, 1, 2, 0,13,50.00,60.00,Thursday
8,115569177.55960898
2,2, 1, 2, 0,14, 0.00,10.00,Thursday
8,114724304.78348948
2,2, 1, 2, 0,14,10.00,20.00,Thursday
8,114016393.2144434
2,2, 1, 2, 0,14,20.00,30.00,Thursday
8,113352275.93078956
2,2, 1, 2, 0,14,30.00,40.00,Thursday
8,112765475.23222806
2,2, 1, 2, 0,14,40.00,50.00,Thursday
8,112213473.48116556
2,2, 1, 2, 0,14,50.00,60.00,Thursday
8,111679113.15408245
2,2, 1, 2, 0,15, 0.00,10.00,Thursday
8,114977007.66125199
2,2, 1, 2, 0,15,10.00,20.00,Thursday
8,118369430.92890744
2,2, 1, 2, 0,15,20.00,30.00,Thursday
8,121826059.0217986
2,2, 1, 2, 0,15,30.00,40.00,Thursday
8,125318686.4244787
2,2, 1, 2, 0,15,40.00,50.00,Thursday
8,128859821.08121161
2,2, 1, 2, 0,15,50.00,60.00,Thursday
8,132452088.50676036
2,2, 1, 2, 0,16, 0.00,10.00,Thursday
8,132981375.00014743
2,2, 1, 2, 0,16,10.00,20.00,Thursday
8,133446777.46931936
2,2, 1, 2, 0,16,20.00,30.00,Thursday
8,133879995.83808549
2,2, 1, 2, 0,16,30.00,40.00,Thursday
8,134315790.29278347
2,2, 1, 2, 0,16,40.00,50.00,Thursday
8,134747451.0437327
2,2, 1, 2, 0,16,50.00,60.00,Thursday
8,135174153.68527836
2,2, 1, 2, 0,17, 0.00,10.00,Thursday
8,134685317.808434
2,2, 1, 2, 0,17,10.00,20.00,Thursday
8,134230995.65496075
2,2, 1, 2, 0,17,20.00,30.00,Thursday
8,133656840.5364182
2,2, 1, 2, 0,17,30.00,40.00,Thursday
8,133029672.99964747
2,2, 1, 2, 0,17,40.00,50.00,Thursday
8,132350073.24229702
2,2, 1, 2, 0,17,50.00,60.00,Thursday
8,131049302.63042617
2,2, 1, 2, 0,18, 0.00,10.00,Thursday
8,133632125.40709235
2,2, 1, 2, 0,18,10.00,20.00,Thursday
8,136306567.34323722
2,2, 1, 2, 0,18,20.00,30.00,Thursday
8,138868481.04350364
2,2, 1, 2, 0,18,30.00,40.00,Thursday
8,141424182.5114624
2,2, 1, 2, 0,18,40.00,50.00,Thursday
8,143994518.64652026
2,2, 1, 2, 0,18,50.00,60.00,Thursday
8,146582605.0063576
2,2, 1, 2, 0,19, 0.00,10.00,Thursday
8,144331892.64335147
2,2, 1, 2, 0,19,10.00,20.00,Thursday
8,142320805.08618313
2,2, 1, 2, 0,19,20.00,30.00,Thursday
8,139833530.01577643
2,2, 1, 2, 0,19,30.00,40.00,Thursday
8,137958121.23963156
2,2, 1, 2, 0,19,40.00,50.00,Thursday
8,135981519.63919252
2,2, 1, 2, 0,19,50.00,60.00,Thursday
8,133757087.66687284
2,2, 1, 2, 0,20, 0.00,10.00,Thursday
8,112908495.78099322
2,2, 1, 2, 0,20,10.00,20.00,Thursday
8,121801469.8949706
2,2, 1, 2, 0,20,20.00,30.00,Thursday
8,130020107.0657784
2,2, 1, 2, 0,20,30.00,40.00,Thursday
8,125779989.87992187
2,2, 1, 2, 0,20,40.00,50.00,Thursday
8,130570222.50257699
2,2, 1, 2, 0,20,50.00,60.00,Thursday
8,132962219.72239353
2,2, 1, 2, 0,21, 0.00,10.00,Thursday
8,133743224.6363527
2,2, 1, 2, 0,21,10.00,20.00,Thursday
8,136044043.35009578
2,2, 1, 2, 0,21,20.00,30.00,Thursday
8,137114055.58183664
2,2, 1, 2, 0,21,30.00,40.00,Thursday
8,138194427.97645122
2,2, 1, 2, 0,21,40.00,50.00,Thursday
8,139790147.3011151
2,2, 1, 2, 0,21,50.00,60.00,Thursday
8,140363600.67056373
2,2, 1, 2, 0,22, 0.00,10.00,Thursday
8,15693170.291199084
2,2, 1, 2, 0,22,10.00,20.00,Thursday
8,18251065.837327003
2,2, 1, 2, 0,22,20.00,30.00,Thursday
8,23842232.953072876
2,2, 1, 2, 0,22,30.00,40.00,Thursday
8,27136749.8852046
2,2, 1, 2, 0,22,40.00,50.00,Thursday
8,33652384.63083504
2,2, 1, 2, 0,22,50.00,60.00,Thursday
8,33387205.910661012
2,2, 1, 2, 0,23, 0.00,10.00,Thursday
8,37305757.19287085
2,2, 1, 2, 0,23,10.00,20.00,Thursday
8,40939806.118888654
2,2, 1, 2, 0,23,20.00,30.00,Thursday
8,43487167.57578184
2,2, 1, 2, 0,23,30.00,40.00,Thursday
8,44892447.086155646
2,2, 1, 2, 0,23,40.00,50.00,Thursday
8,46737922.860599995
2,2, 1, 2, 0,23,50.00,60.00,Thursday
8,48497650.833693005
2,2, 1, 2, 0,24, 0.00,10.00,Thursday
8,52715939.80786155
2,2, 1, 2, 0,24,10.00,20.00,Thursday
8,54151960.89574289
2,2, 1, 2, 0,24,20.00,30.00,Thursday
8,55800389.71985738
2,2, 1, 2, 0,24,30.00,40.00,Thursday
8,57405613.12988027
2,2, 1, 2, 0,24,40.00,50.00,Thursday
8,59512542.51949226
2,2, 1, 2, 0,24,50.00,60.00,Thursday
8,60478701.203275874
2,3, 1, 3, 0, 1, 0.00,10.00,Friday
8,63580667.64265937
2,3, 1, 3, 0, 1,10.00,20.00,Friday
8,65916125.38717977
2,3, 1, 3, 0, 1,20.00,30.00,Friday
8,68680909.57350385
2,3, 1, 3, 0, 1,30.00,40.00,Friday
8,70365338.1142091
2,3, 1, 3, 0, 1,40.00,50.00,Friday
8,72606310.91538961
2,3, 1, 3, 0, 1,50.00,60.00,Friday
8,74906653.88375574
2,3, 1, 3, 0, 2, 0.00,10.00,Friday
8,72633548.3834169
2,3, 1, 3, 0, 2,10.00,20.00,Friday
8,68938358.9540342
2,3, 1, 3, 0, 2,20.00,30.00,Friday
8,65627549.09299176
2,3, 1, 3, 0, 2,30.00,40.00,Friday
8,62332600.89254026
2,3, 1, 3, 0, 2,40.00,50.00,Friday
8,59320161.179803014
2,3, 1, 3, 0, 2,50.00,60.00,Friday
8,55361756.462177075
2,3, 1, 3, 0, 3, 0.00,10.00,Friday
8,56064000.88917922
2,3, 1, 3, 0, 3,10.00,20.00,Friday
8,56543691.8294272
2,3, 1, 3, 0, 3,20.00,30.00,Friday
8,57246717.89421055
2,3, 1, 3, 0, 3,30.00,40.00,Friday
8,57103364.664929464
2,3, 1, 3, 0, 3,40.00,50.00,Friday
8,57413284.314601064
2,3, 1, 3, 0, 3,50.00,60.00,Friday
8,57822656.682499684
2,3, 1, 3, 0, 4, 0.00,10.00,Friday
8,60063485.630321465
2,3, 1, 3, 0, 4,10.00,20.00,Friday
8,61384671.72087795
2,3, 1, 3, 0, 4,20.00,30.00,Friday
8,63158556.39649155
2,3, 1, 3, 0, 4,30.00,40.00,Friday
8,65073886.99681466
2,3, 1, 3, 0, 4,40.00,50.00,Friday
8,67219200.48028119
2,3, 1, 3, 0, 4,50.00,60.00,Friday
8,68627113.20468768
2,3, 1, 3, 0, 5, 0.00,10.00,Friday
8,69689067.51029529
2,3, 1, 3, 0, 5,10.00,20.00,Friday
8,70712004.5067663
2,3, 1, 3, 0, 5,20.00,30.00,Friday
8,71897222.86887075
2,3, 1, 3, 0, 5,30.00,40.00,Friday
8,72341874.92588039
2,3, 1, 3, 0, 5,40.00,50.00,Friday
8,73218906.41553362
2,3, 1, 3, 0, 5,50.00,60.00,Friday
8,74226091.10805033
2,3, 1, 3, 0, 6, 0.00,10.00,Friday
8,74371046.47992803
2,3, 1, 3, 0, 6,10.00,20.00,Friday
8,73645352.03162222
2,3, 1, 3, 0, 6,20.00,30.00,Friday
8,73384912.45960961
2,3, 1, 3, 0, 6,30.00,40.00,Friday
8,73180963.73446614
2,3, 1, 3, 0, 6,40.00,50.00,Friday
8,73129487.60874361
2,3, 1, 3, 0, 6,50.00,60.00,Friday
8,72353400.61879696
2,3, 1, 3, 0, 7, 0.00,10.00,Friday
8,71824086.50701945
2,3, 1, 3, 0, 7,10.00,20.00,Friday
8,71327355.0363221
2,3, 1, 3, 0, 7,20.00,30.00,Friday
8,70964668.07177147
2,3, 1, 3, 0, 7,30.00,40.00,Friday
8,69888853.2198698
2,3, 1, 3, 0, 7,40.00,50.00,Friday
8,69229343.00929672
2,3, 1, 3, 0, 7,50.00,60.00,Friday
8,68701818.95060436
2,3, 1, 3, 0, 8, 0.00,10.00,Friday
8,128952899.11501953
2,3, 1, 3, 0, 8,10.00,20.00,Friday
8,95437036.05904962
2,3, 1, 3, 0, 8,20.00,30.00,Friday
8,98631327.25963129
2,3, 1, 3, 0, 8,30.00,40.00,Friday
8,93007742.31505103
2,3, 1, 3, 0, 8,40.00,50.00,Friday
8,91159138.22422342
2,3, 1, 3, 0, 8,50.00,60.00,Friday
8,89436349.87905686
2,3, 1, 3, 0, 9, 0.00,10.00,Friday
8,122420638.56768072
2,3, 1, 3, 0, 9,10.00,20.00,Friday
8,128300441.13988225
2,3, 1, 3, 0, 9,20.00,30.00,Friday
8,91625032.38959993
2,3, 1, 3, 0, 9,30.00,40.00,Friday
8,103814079.93832561
2,3, 1, 3, 0, 9,40.00,50.00,Friday
8,98706075.93169548
2,3, 1, 3, 0, 9,50.00,60.00,Friday
8,97039693.77018873
2,3, 1, 3, 0,10, 0.00,10.00,Friday
8,174579686.26361623
2,3, 1, 3, 0,10,10.00,20.00,Friday
8,169465609.91847754
2,3, 1, 3, 0,10,20.00,30.00,Friday
8,165646220.9366292
2,3, 1, 3, 0,10,30.00,40.00,Friday
8,162530766.80794877
2,3, 1, 3, 0,10,40.00,50.00,Friday
8,159468560.1638767
2,3, 1, 3, 0,10,50.00,60.00,Friday
8,156564483.43151167
2,3, 1, 3, 0,11, 0.00,10.00,Friday
8,152757700.53313586
2,3, 1, 3, 0,11,10.00,20.00,Friday
8,153381864.12640345
2,3, 1, 3, 0,11,20.00,30.00,Friday
8,154569739.6995167
2,3, 1, 3, 0,11,30.00,40.00,Friday
8,155898925.51807418
2,3, 1, 3, 0,11,40.00,50.00,Friday
8,157314052.5148011
2,3, 1, 3, 0,11,50.00,60.00,Friday
8,158895739.98680082
2,3, 1, 3, 0,12, 0.00,10.00,Friday
8,155314260.26920816
2,3, 1, 3, 0,12,10.00,20.00,Friday
8,154208574.30718926
2,3, 1, 3, 0,12,20.00,30.00,Friday
8,153379269.02683005
2,3, 1, 3, 0,12,30.00,40.00,Friday
8,152653129.861387
2,3, 1, 3, 0,12,40.00,50.00,Friday
8,152007262.1301176
2,3, 1, 3, 0,12,50.00,60.00,Friday
8,151527022.3530891
2,3, 1, 3, 0,13, 0.00,10.00,Friday
8,151232465.7121802
2,3, 1, 3, 0,13,10.00,20.00,Friday
8,151451298.09811622
2,3, 1, 3, 0,13,20.00,30.00,Friday
8,151854178.7363781
2,3, 1, 3, 0,13,30.00,40.00,Friday
8,152403557.56854266
2,3, 1, 3, 0,13,40.00,50.00,Friday
8,152997564.42528355
2,3, 1, 3, 0,13,50.00,60.00,Friday
8,153670049.81869593
2,3, 1, 3, 0,14, 0.00,10.00,Friday
8,152705477.5483284
2,3, 1, 3, 0,14,10.00,20.00,Friday
8,150912225.92056748
2,3, 1, 3, 0,14,20.00,30.00,Friday
8,149113523.40065098
2,3, 1, 3, 0,14,30.00,40.00,Friday
8,147142287.60958627
2,3, 1, 3, 0,14,40.00,50.00,Friday
8,145102589.83587635
2,3, 1, 3, 0,14,50.00,60.00,Friday
8,143025567.15108258
2,3, 1, 3, 0,15, 0.00,10.00,Friday
8,145344021.2708159
2,3, 1, 3, 0,15,10.00,20.00,Friday
8,146706244.23483473
2,3, 1, 3, 0,15,20.00,30.00,Friday
8,148027756.0300165
2,3, 1, 3, 0,15,30.00,40.00,Friday
8,149440624.06297207
2,3, 1, 3, 0,15,40.00,50.00,Friday
8,150897004.5968571
2,3, 1, 3, 0,15,50.00,60.00,Friday
8,152388968.82047233
2,3, 1, 3, 0,16, 0.00,10.00,Friday
8,155386210.83276173
2,3, 1, 3, 0,16,10.00,20.00,Friday
8,157275438.87113774
2,3, 1, 3, 0,16,20.00,30.00,Friday
8,159160404.79291815
2,3, 1, 3, 0,16,30.00,40.00,Friday
8,161285279.06374052
2,3, 1, 3, 0,16,40.00,50.00,Friday
8,163506914.31618232
2,3, 1, 3, 0,16,50.00,60.00,Friday
8,165748713.6928352
2,3, 1, 3, 0,17, 0.00,10.00,Friday
8,169153153.75737137
2,3, 1, 3, 0,17,10.00,20.00,Friday
8,170891846.23877788
2,3, 1, 3, 0,17,20.00,30.00,Friday
8,172026135.52427047
2,3, 1, 3, 0,17,30.00,40.00,Friday
8,173030431.6464253
2,3, 1, 3, 0,17,40.00,50.00,Friday
8,173889630.68945
2,3, 1, 3, 0,17,50.00,60.00,Friday
8,174128694.34987748
2,3, 1, 3, 0,18, 0.00,10.00,Friday
8,175221566.36947194
2,3, 1, 3, 0,18,10.00,20.00,Friday
8,175397967.61018875
2,3, 1, 3, 0,18,20.00,30.00,Friday
8,175215470.1305182
2,3, 1, 3, 0,18,30.00,40.00,Friday
8,174967280.69877586
2,3, 1, 3, 0,18,40.00,50.00,Friday
8,174653184.38040715
2,3, 1, 3, 0,18,50.00,60.00,Friday
8,174285884.95556116
2,3, 1, 3, 0,19, 0.00,10.00,Friday
8,173640019.85156232
2,3, 1, 3, 0,19,10.00,20.00,Friday
8,172656736.5009716
2,3, 1, 3, 0,19,20.00,30.00,Friday
8,171281700.08207187
2,3, 1, 3, 0,19,30.00,40.00,Friday
8,170529701.6860322
2,3, 1, 3, 0,19,40.00,50.00,Friday
8,169525366.87303156
2,3, 1, 3, 0,19,50.00,60.00,Friday
8,168357695.98688862
2,3, 1, 3, 0,20, 0.00,10.00,Friday
8,145704010.46849486
2,3, 1, 3, 0,20,10.00,20.00,Friday
8,153683066.4714273
2,3, 1, 3, 0,20,20.00,30.00,Friday
8,161792828.27411708
2,3, 1, 3, 0,20,30.00,40.00,Friday
8,167845687.05704486
2,3, 1, 3, 0,20,40.00,50.00,Friday
8,171753714.5838428
2,3, 1, 3, 0,20,50.00,60.00,Friday
8,176495923.7238154
2,3, 1, 3, 0,21, 0.00,10.00,Friday
8,174833521.2485912
2,3, 1, 3, 0,21,10.00,20.00,Friday
8,174417216.10063583
2,3, 1, 3, 0,21,20.00,30.00,Friday
8,172675480.45411348
2,3, 1, 3, 0,21,30.00,40.00,Friday
8,171179212.16344416
2,3, 1, 3, 0,21,40.00,50.00,Friday
8,169920947.56407118
2,3, 1, 3, 0,21,50.00,60.00,Friday
8,167623190.57763857
2,3, 1, 3, 0,22, 0.00,10.00,Friday
8,17794963.077626474
2,3, 1, 3, 0,22,10.00,20.00,Friday
8,22053270.794212133
2,3, 1, 3, 0,22,20.00,30.00,Friday
8,36872451.06000087
2,3, 1, 3, 0,22,30.00,40.00,Friday
8,46991333.544583805
2,3, 1, 3, 0,22,40.00,50.00,Friday
8,54745411.76270688
2,3, 1, 3, 0,22,50.00,60.00,Friday
8,52724687.23289796
2,3, 1, 3, 0,23, 0.00,10.00,Friday
8,60258237.82141046
2,3, 1, 3, 0,23,10.00,20.00,Friday
8,63495021.53272235
2,3, 1, 3, 0,23,20.00,30.00,Friday
8,66219799.102649964
2,3, 1, 3, 0,23,30.00,40.00,Friday
8,67736226.15384492
2,3, 1, 3, 0,23,40.00,50.00,Friday
8,69662389.89269638
2,3, 1, 3, 0,23,50.00,60.00,Friday
8,71481061.61526462
2,3, 1, 3, 0,24, 0.00,10.00,Friday
8,75267713.66921987
2,3, 1, 3, 0,24,10.00,20.00,Friday
8,76170817.84208688
2,3, 1, 3, 0,24,20.00,30.00,Friday
8,77288929.67740701
2,3, 1, 3, 0,24,30.00,40.00,Friday
8,78350225.74091457
2,3, 1, 3, 0,24,40.00,50.00,Friday
8,79903030.99924824
2,3, 1, 3, 0,24,50.00,60.00,Friday
8,80300420.7037549
2,4, 1, 4, 0, 1, 0.00,10.00,Saturday
8,81357668.16315411
2,4, 1, 4, 0, 1,10.00,20.00,Saturday
8,81620389.26602422
2,4, 1, 4, 0, 1,20.00,30.00,Saturday
8,82301831.9570621
2,4, 1, 4, 0, 1,30.00,40.00,Saturday
8,81847750.9784605
2,4, 1, 4, 0, 1,40.00,50.00,Saturday
8,81921304.13586612
2,4, 1, 4, 0, 1,50.00,60.00,Saturday
8,81975660.35758586
2,4, 1, 4, 0, 2, 0.00,10.00,Saturday
8,82426491.99772441
2,4, 1, 4, 0, 2,10.00,20.00,Saturday
8,81424414.99826638
2,4, 1, 4, 0, 2,20.00,30.00,Saturday
8,80917022.26522003
2,4, 1, 4, 0, 2,30.00,40.00,Saturday
8,80396253.5611534
2,4, 1, 4, 0, 2,40.00,50.00,Saturday
8,80415601.450789
2,4, 1, 4, 0, 2,50.00,60.00,Saturday
8,79317210.73945221
2,4, 1, 4, 0, 3, 0.00,10.00,Saturday
8,79708819.36399764
2,4, 1, 4, 0, 3,10.00,20.00,Saturday
8,79932475.4158664
2,4, 1, 4, 0, 3,20.00,30.00,Saturday
8,80682342.24051587
2,4, 1, 4, 0, 3,30.00,40.00,Saturday
8,80319780.90196183
2,4, 1, 4, 0, 3,40.00,50.00,Saturday
8,80506065.24379222
2,4, 1, 4, 0, 3,50.00,60.00,Saturday
8,80688945.01652347
2,4, 1, 4, 0, 4, 0.00,10.00,Saturday
8,81591646.31121399
2,4, 1, 4, 0, 4,10.00,20.00,Saturday
8,81284280.49045548
2,4, 1, 4, 0, 4,20.00,30.00,Saturday
8,81515461.03613442
2,4, 1, 4, 0, 4,30.00,40.00,Saturday
8,81765019.19953519
2,4, 1, 4, 0, 4,40.00,50.00,Saturday
8,82505525.68711545
2,4, 1, 4, 0, 4,50.00,60.00,Saturday
8,82197421.06886062
2,4, 1, 4, 0, 5, 0.00,10.00,Saturday
8,81569408.5195183
2,4, 1, 4, 0, 5,10.00,20.00,Saturday
8,80893579.31898503
2,4, 1, 4, 0, 5,20.00,30.00,Saturday
8,80565320.09097555
2,4, 1, 4, 0, 5,30.00,40.00,Saturday
8,79309953.40286069
2,4, 1, 4, 0, 5,40.00,50.00,Saturday
8,78541714.47293544
2,4, 1, 4, 0, 5,50.00,60.00,Saturday
8,77862043.19203274
2,4, 1, 4, 0, 6, 0.00,10.00,Saturday
8,79406532.46725322
2,4, 1, 4, 0, 6,10.00,20.00,Saturday
8,80047014.40626635
2,4, 1, 4, 0, 6,20.00,30.00,Saturday
8,81144851.03116697
2,4, 1, 4, 0, 6,30.00,40.00,Saturday
8,82361509.67223026
2,4, 1, 4, 0, 6,40.00,50.00,Saturday
8,83716291.4308009
2,4, 1, 4, 0, 6,50.00,60.00,Saturday
8,84386989.41893451
2,4, 1, 4, 0, 7, 0.00,10.00,Saturday
8,82979958.93221416
2,4, 1, 4, 0, 7,10.00,20.00,Saturday
8,81621575.9134494
2,4, 1, 4, 0, 7,20.00,30.00,Saturday
8,80414768.60009278
2,4, 1, 4, 0, 7,30.00,40.00,Saturday
8,78476479.30957101
2,4, 1, 4, 0, 7,40.00,50.00,Saturday
8,76957955.72362877
2,4, 1, 4, 0, 7,50.00,60.00,Saturday
8,75649243.99530521
2,4, 1, 4, 0, 8, 0.00,10.00,Saturday
8,119712023.82059157
2,4, 1, 4, 0, 8,10.00,20.00,Saturday
8,71072501.34805031
2,4, 1, 4, 0, 8,20.00,30.00,Saturday
8,97471642.76830642
2,4, 1, 4, 0, 8,30.00,40.00,Saturday
8,95294457.39683276
2,4, 1, 4, 0, 8,40.00,50.00,Saturday
8,95227938.16472185
2,4, 1, 4, 0, 8,50.00,60.00,Saturday
8,95315578.5116689
2,4, 1, 4, 0, 9, 0.00,10.00,Saturday
8,125805142.49878417
2,4, 1, 4, 0, 9,10.00,20.00,Saturday
8,143174860.7336135
2,4, 1, 4, 0, 9,20.00,30.00,Saturday
8,98531910.23576762
2,4, 1, 4, 0, 9,30.00,40.00,Saturday
8,111120458.29579203
2,4, 1, 4, 0, 9,40.00,50.00,Saturday
8,105196822.0156283
2,4, 1, 4, 0, 9,50.00,60.00,Saturday
8,100250974.90849487
2,4, 1, 4, 0,10, 0.00,10.00,Saturday
8,200278582.14587182
2,4, 1, 4, 0,10,10.00,20.00,Saturday
8,197728804.62338516
2,4, 1, 4, 0,10,20.00,30.00,Saturday
8,196908825.28203028
2,4, 1, 4, 0,10,30.00,40.00,Saturday
8,197911167.0705733
2,4, 1, 4, 0,10,40.00,50.00,Saturday
8,198921415.6903614
2,4, 1, 4, 0,10,50.00,60.00,Saturday
8,201051695.08386475
2,4, 1, 4, 0,11, 0.00,10.00,Saturday
8,192078155.59049195
2,4, 1, 4, 0,11,10.00,20.00,Saturday
8,187730325.7527987
2,4, 1, 4, 0,11,20.00,30.00,Saturday
8,183838764.87479535
2,4, 1, 4, 0,11,30.00,40.00,Saturday
8,180023858.7663455
2,4, 1, 4, 0,11,40.00,50.00,Saturday
8,176634383.0128687
2,4, 1, 4, 0,11,50.00,60.00,Saturday
8,173374278.95105192
2,4, 1, 4, 0,12, 0.00,10.00,Saturday
8,173530046.11718938
2,4, 1, 4, 0,12,10.00,20.00,Saturday
8,175776067.49405634
2,4, 1, 4, 0,12,20.00,30.00,Saturday
8,178289588.1715393
2,4, 1, 4, 0,12,30.00,40.00,Saturday
8,180992071.5060756
2,4, 1, 4, 0,12,40.00,50.00,Saturday
8,183802567.69912785
2,4, 1, 4, 0,12,50.00,60.00,Saturday
8,186675219.54066226
2,4, 1, 4, 0,13, 0.00,10.00,Saturday
8,182876870.17445436
2,4, 1, 4, 0,13,10.00,20.00,Saturday
8,179555238.22546014
2,4, 1, 4, 0,13,20.00,30.00,Saturday
8,175951474.67587972
2,4, 1, 4, 0,13,30.00,40.00,Saturday
8,172372490.72357625
2,4, 1, 4, 0,13,40.00,50.00,Saturday
8,168835288.2435082
2,4, 1, 4, 0,13,50.00,60.00,Saturday
8,165419811.93943337
2,4, 1, 4, 0,14, 0.00,10.00,Saturday
8,164457656.075815
2,4, 1, 4, 0,14,10.00,20.00,Saturday
8,162643490.32837176