Program Version,EnergyPlus, Version 23.2.0-7636e6b3e9, YMD=2025.01.14 17:12
1,5,Environment Title[],Latitude[deg],Longitude[deg],Time Zone[],Elevation[m]
2,8,Day of Simulation[],Month[],Day of Month[],DST Indicator[1=yes 0=no],Hour[],StartMinute[],EndMinute[],DayType
3,5,Cumulative Day of Simulation[],Month[],Day of Month[],DST Indicator[1=yes 0=no],DayType  ! When Daily Report Variables Requested
4,2,Cumulative Days of Simulation[],Month[]  ! When Monthly Report Variables Requested
5,1,Cumulative Days of Simulation[] ! When Run Period Report Variables Requested
6,1,Calendar Year of Simulation[] ! When Annual Report Variables Requested
8,1,Electricity:Facility [J] !TimeStep
End of Data Dictionary
1,RUN PERIOD 1,  45.52, -73.42,  -5.00,  27.40
2,1, 1, 1, 0, 1, 0.00,10.00,Wednesday
8,71581414.25572221
2,1, 1, 1, 0, 1,10.00,20.00,Wednesday
8,69344451.3889202
2,1, 1, 1, 0, 1,20.00,30.00,Wednesday
8,66479414.07103149
2,1, 1, 1, 0, 1,30.00,40.00,Wednesday
8,63997108.19200903
2,1, 1, 1, 0, 1,40.00,50.00,Wednesday
8,61021143.85946261
2,1, 1, 1, 0, 1,50.00,60.00,Wednesday
8,58026749.27725689
2,1, 1, 1, 0, 2, 0.00,10.00,Wednesday
8,58974853.3114619
2,1, 1, 1, 0, 2,10.00,20.00,Wednesday
8,59480529.969635814
2,1, 1, 1, 0, 2,20.00,30.00,Wednesday
8,59605785.63328314
2,1, 1, 1, 0, 2,30.00,40.00,Wednesday
8,59428361.960378066
2,1, 1, 1, 0, 2,40.00,50.00,Wednesday
8,59501817.8247459
2,1, 1, 1, 0, 2,50.00,60.00,Wednesday
8,59770637.53298
2,1, 1, 1, 0, 3, 0.00,10.00,Wednesday
8,60835144.04246285
2,1, 1, 1, 0, 3,10.00,20.00,Wednesday
8,61013157.713330485
2,1, 1, 1, 0, 3,20.00,30.00,Wednesday
8,61448316.22287931
2,1, 1, 1, 0, 3,30.00,40.00,Wednesday
8,62050647.403624676
2,1, 1, 1, 0, 3,40.00,50.00,Wednesday
8,62641109.26891375
2,1, 1, 1, 0, 3,50.00,60.00,Wednesday
8,62660289.33079922
2,1, 1, 1, 0, 4, 0.00,10.00,Wednesday
8,59582674.201354414
2,1, 1, 1, 0, 4,10.00,20.00,Wednesday
8,56428473.654096454
2,1, 1, 1, 0, 4,20.00,30.00,Wednesday
8,53302330.04101107
2,1, 1, 1, 0, 4,30.00,40.00,Wednesday
8,49504219.65544627
2,1, 1, 1, 0, 4,40.00,50.00,Wednesday
8,46073925.4204052
2,1, 1, 1, 0, 4,50.00,60.00,Wednesday
8,42752979.81990825
2,1, 1, 1, 0, 5, 0.00,10.00,Wednesday
8,44388569.33491593
2,1, 1, 1, 0, 5,10.00,20.00,Wednesday
8,45188370.10302483
2,1, 1, 1, 0, 5,20.00,30.00,Wednesday
8,46385430.20518977
2,1, 1, 1, 0, 5,30.00,40.00,Wednesday
8,47702157.28361219
2,1, 1, 1, 0, 5,40.00,50.00,Wednesday
8,49201245.50730949
2,1, 1, 1, 0, 5,50.00,60.00,Wednesday
8,49959047.41629091
2,1, 1, 1, 0, 6, 0.00,10.00,Wednesday
8,49186096.75605776
2,1, 1, 1, 0, 6,10.00,20.00,Wednesday
8,48461697.914441004
2,1, 1, 1, 0, 6,20.00,30.00,Wednesday
8,47941187.6543102
2,1, 1, 1, 0, 6,30.00,40.00,Wednesday
8,46649905.90797198
2,1, 1, 1, 0, 6,40.00,50.00,Wednesday
8,45798357.94133488
2,1, 1, 1, 0, 6,50.00,60.00,Wednesday
8,45052151.14528191
2,1, 1, 1, 0, 7, 0.00,10.00,Wednesday
8,42644403.31441407
2,1, 1, 1, 0, 7,10.00,20.00,Wednesday
8,39424232.988345094
2,1, 1, 1, 0, 7,20.00,30.00,Wednesday
8,36664333.723035686
2,1, 1, 1, 0, 7,30.00,40.00,Wednesday
8,34024096.19253285
2,1, 1, 1, 0, 7,40.00,50.00,Wednesday
8,31652337.62391371
2,1, 1, 1, 0, 7,50.00,60.00,Wednesday
8,28494931.27565359
2,1, 1, 1, 0, 8, 0.00,10.00,Wednesday
8,89593300.0471294
2,1, 1, 1, 0, 8,10.00,20.00,Wednesday
8,27583144.442921527
2,1, 1, 1, 0, 8,20.00,30.00,Wednesday
8,60482363.85877165
2,1, 1, 1, 0, 8,30.00,40.00,Wednesday
8,58451798.4105008
2,1, 1, 1, 0, 8,40.00,50.00,Wednesday
8,56688048.64729014
2,1, 1, 1, 0, 8,50.00,60.00,Wednesday
8,57680600.0064113
2,1, 1, 1, 0, 9, 0.00,10.00,Wednesday
8,107979158.3379334
2,1, 1, 1, 0, 9,10.00,20.00,Wednesday
8,93103678.4672128
2,1, 1, 1, 0, 9,20.00,30.00,Wednesday
8,82201937.40914743
2,1, 1, 1, 0, 9,30.00,40.00,Wednesday
8,81664810.80613719
2,1, 1, 1, 0, 9,40.00,50.00,Wednesday
8,83246949.71077521
2,1, 1, 1, 0, 9,50.00,60.00,Wednesday
8,83424945.56014071
2,1, 1, 1, 0,10, 0.00,10.00,Wednesday
8,170518602.24843717
2,1, 1, 1, 0,10,10.00,20.00,Wednesday
8,168808144.7227839
2,1, 1, 1, 0,10,20.00,30.00,Wednesday
8,168240677.0634648
2,1, 1, 1, 0,10,30.00,40.00,Wednesday
8,167739503.60253003
2,1, 1, 1, 0,10,40.00,50.00,Wednesday
8,167679298.6231562
2,1, 1, 1, 0,10,50.00,60.00,Wednesday
8,167881088.27853212
2,1, 1, 1, 0,11, 0.00,10.00,Wednesday
8,167517311.80099463
2,1, 1, 1, 0,11,10.00,20.00,Wednesday
8,170938967.8971299
2,1, 1, 1, 0,11,20.00,30.00,Wednesday
8,174891585.23468935
2,1, 1, 1, 0,11,30.00,40.00,Wednesday
8,179060063.81050187
2,1, 1, 1, 0,11,40.00,50.00,Wednesday
8,183388394.09503442
2,1, 1, 1, 0,11,50.00,60.00,Wednesday
8,187798184.9841617
2,1, 1, 1, 0,12, 0.00,10.00,Wednesday
8,185980302.05593354
2,1, 1, 1, 0,12,10.00,20.00,Wednesday
8,186605686.07717514
2,1, 1, 1, 0,12,20.00,30.00,Wednesday
8,187382278.7008928
2,1, 1, 1, 0,12,30.00,40.00,Wednesday
8,188470231.8419731
2,1, 1, 1, 0,12,40.00,50.00,Wednesday
8,189703947.20625123
2,1, 1, 1, 0,12,50.00,60.00,Wednesday
8,191006746.49783504
2,1, 1, 1, 0,13, 0.00,10.00,Wednesday
8,188850775.6543654
2,1, 1, 1, 0,13,10.00,20.00,Wednesday
8,187824164.27575454
2,1, 1, 1, 0,13,20.00,30.00,Wednesday
8,187099883.13000718
2,1, 1, 1, 0,13,30.00,40.00,Wednesday
8,186461671.94384336
2,1, 1, 1, 0,13,40.00,50.00,Wednesday
8,185878250.2649916
2,1, 1, 1, 0,13,50.00,60.00,Wednesday
8,185332390.22871894
2,1, 1, 1, 0,14, 0.00,10.00,Wednesday
8,186551826.20071098
2,1, 1, 1, 0,14,10.00,20.00,Wednesday
8,187871498.9959433
2,1, 1, 1, 0,14,20.00,30.00,Wednesday
8,189271828.58744496
2,1, 1, 1, 0,14,30.00,40.00,Wednesday
8,190698232.05732122
2,1, 1, 1, 0,14,40.00,50.00,Wednesday
8,192153834.7729575
2,1, 1, 1, 0,14,50.00,60.00,Wednesday
8,193637292.49121866
2,1, 1, 1, 0,15, 0.00,10.00,Wednesday
8,196755581.78604388
2,1, 1, 1, 0,15,10.00,20.00,Wednesday
8,199054177.09237596
2,1, 1, 1, 0,15,20.00,30.00,Wednesday
8,201312377.8163312
2,1, 1, 1, 0,15,30.00,40.00,Wednesday
8,203693011.2670872
2,1, 1, 1, 0,15,40.00,50.00,Wednesday
8,206122953.569603
2,1, 1, 1, 0,15,50.00,60.00,Wednesday
8,208583103.36057818
2,1, 1, 1, 0,16, 0.00,10.00,Wednesday
8,210056490.99808246
2,1, 1, 1, 0,16,10.00,20.00,Wednesday
8,210170007.98993185
2,1, 1, 1, 0,16,20.00,30.00,Wednesday
8,210170344.55158076
2,1, 1, 1, 0,16,30.00,40.00,Wednesday
8,210292754.17075604
2,1, 1, 1, 0,16,40.00,50.00,Wednesday
8,210541592.57539985
2,1, 1, 1, 0,16,50.00,60.00,Wednesday
8,210844236.92975563
2,1, 1, 1, 0,17, 0.00,10.00,Wednesday
8,210078826.72586417
2,1, 1, 1, 0,17,10.00,20.00,Wednesday
8,208476637.54813668
2,1, 1, 1, 0,17,20.00,30.00,Wednesday
8,205956731.39329216
2,1, 1, 1, 0,17,30.00,40.00,Wednesday
8,203344618.49334913
2,1, 1, 1, 0,17,40.00,50.00,Wednesday
8,200596636.23363996
2,1, 1, 1, 0,17,50.00,60.00,Wednesday
8,197267600.90509823
2,1, 1, 1, 0,18, 0.00,10.00,Wednesday
8,197737606.49483827
2,1, 1, 1, 0,18,10.00,20.00,Wednesday
8,197137585.77069387
2,1, 1, 1, 0,18,20.00,30.00,Wednesday
8,196310073.1581454
2,1, 1, 1, 0,18,30.00,40.00,Wednesday
8,195340753.2160171
2,1, 1, 1, 0,18,40.00,50.00,Wednesday
8,194308689.55016705
2,1, 1, 1, 0,18,50.00,60.00,Wednesday
8,193231455.4643541
2,1, 1, 1, 0,19, 0.00,10.00,Wednesday
8,194341935.36659673
2,1, 1, 1, 0,19,10.00,20.00,Wednesday
8,195284568.36750925
2,1, 1, 1, 0,19,20.00,30.00,Wednesday
8,195583199.73917294
2,1, 1, 1, 0,19,30.00,40.00,Wednesday
8,196457864.24656838
2,1, 1, 1, 0,19,40.00,50.00,Wednesday
8,197429695.2759287
2,1, 1, 1, 0,19,50.00,60.00,Wednesday
8,198088866.26939476
2,1, 1, 1, 0,20, 0.00,10.00,Wednesday
8,169603559.2317373
2,1, 1, 1, 0,20,10.00,20.00,Wednesday
8,174680813.764956
2,1, 1, 1, 0,20,20.00,30.00,Wednesday
8,179207858.3487289
2,1, 1, 1, 0,20,30.00,40.00,Wednesday
8,180807083.48168325
2,1, 1, 1, 0,20,40.00,50.00,Wednesday
8,181646124.02977565
2,1, 1, 1, 0,20,50.00,60.00,Wednesday
8,182439108.84743968
2,1, 1, 1, 0,21, 0.00,10.00,Wednesday
8,181339062.15369797
2,1, 1, 1, 0,21,10.00,20.00,Wednesday
8,181502597.0962362
2,1, 1, 1, 0,21,20.00,30.00,Wednesday
8,180524754.94428393
2,1, 1, 1, 0,21,30.00,40.00,Wednesday
8,179188271.47699705
2,1, 1, 1, 0,21,40.00,50.00,Wednesday
8,178692124.82509953
2,1, 1, 1, 0,21,50.00,60.00,Wednesday
8,177172377.3625586
2,1, 1, 1, 0,22, 0.00,10.00,Wednesday
8,18531038.78824758
2,1, 1, 1, 0,22,10.00,20.00,Wednesday
8,23088195.220950007
2,1, 1, 1, 0,22,20.00,30.00,Wednesday
8,40259015.97585381
2,1, 1, 1, 0,22,30.00,40.00,Wednesday
8,49953629.62758261
2,1, 1, 1, 0,22,40.00,50.00,Wednesday
8,57374301.562825136
2,1, 1, 1, 0,22,50.00,60.00,Wednesday
8,54569013.85039167
2,1, 1, 1, 0,23, 0.00,10.00,Wednesday
8,61005339.52723968
2,1, 1, 1, 0,23,10.00,20.00,Wednesday
8,62133890.17423646
2,1, 1, 1, 0,23,20.00,30.00,Wednesday
8,62664152.590539396
2,1, 1, 1, 0,23,30.00,40.00,Wednesday
8,62126963.314487845
2,1, 1, 1, 0,23,40.00,50.00,Wednesday
8,61928793.077023305
2,1, 1, 1, 0,23,50.00,60.00,Wednesday
8,61676666.55539722
2,1, 1, 1, 0,24, 0.00,10.00,Wednesday
8,66913903.39933725
2,1, 1, 1, 0,24,10.00,20.00,Wednesday
8,69270514.16254036
2,1, 1, 1, 0,24,20.00,30.00,Wednesday
8,71768491.7197444
2,1, 1, 1, 0,24,30.00,40.00,Wednesday
8,74274571.05807164
2,1, 1, 1, 0,24,40.00,50.00,Wednesday
8,77059316.67409857
2,1, 1, 1, 0,24,50.00,60.00,Wednesday
8,78898620.2794694
2,2, 1, 2, 0, 1, 0.00,10.00,Thursday
8,79778851.28212169
2,2, 1, 2, 0, 1,10.00,20.00,Thursday
8,79975470.70673981
2,2, 1, 2, 0, 1,20.00,30.00,Thursday
8,80360662.81372681
2,2, 1, 2, 0, 1,30.00,40.00,Thursday
8,79848544.34988385
2,2, 1, 2, 0, 1,40.00,50.00,Thursday
8,79785755.15463811
2,2, 1, 2, 0, 1,50.00,60.00,Thursday
8,79793167.80997692
2,2, 1, 2, 0, 2, 0.00,10.00,Thursday
8,80646317.94721106
2,2, 1, 2, 0, 2,10.00,20.00,Thursday
8,80390805.8041573
2,2, 1, 2, 0, 2,20.00,30.00,Thursday
8,80559076.20776232
2,2, 1, 2, 0, 2,30.00,40.00,Thursday
8,80817330.1178352
2,2, 1, 2, 0, 2,40.00,50.00,Thursday
8,81331122.32761991
2,2, 1, 2, 0, 2,50.00,60.00,Thursday
8,81020483.53426042
2,2, 1, 2, 0, 3, 0.00,10.00,Thursday
8,80753500.1979269
2,2, 1, 2, 0, 3,10.00,20.00,Thursday
8,80532554.54245096
2,2, 1, 2, 0, 3,20.00,30.00,Thursday
8,80532525.72307883
2,2, 1, 2, 0, 3,30.00,40.00,Thursday
8,79725697.2685983
2,2, 1, 2, 0, 3,40.00,50.00,Thursday
8,79366506.09899345
2,2, 1, 2, 0, 3,50.00,60.00,Thursday
8,79110398.07011122
2,2, 1, 2, 0, 4, 0.00,10.00,Thursday
8,79669317.40431379
2,2, 1, 2, 0, 4,10.00,20.00,Thursday
8,79438189.4538577
2,2, 1, 2, 0, 4,20.00,30.00,Thursday
8,79568398.92240192
2,2, 1, 2, 0, 4,30.00,40.00,Thursday
8,79808149.07338527
2,2, 1, 2, 0, 4,40.00,50.00,Thursday
8,80274022.98624633
2,2, 1, 2, 0, 4,50.00,60.00,Thursday
8,79954340.20521209
2,2, 1, 2, 0, 5, 0.00,10.00,Thursday
8,79176089.74074191
2,2, 1, 2, 0, 5,10.00,20.00,Thursday
8,78430551.11509326
2,2, 1, 2, 0, 5,20.00,30.00,Thursday
8,77894019.28776915
2,2, 1, 2, 0, 5,30.00,40.00,Thursday
8,76575557.88286914
2,2, 1, 2, 0, 5,40.00,50.00,Thursday
8,75696722.18327308
2,2, 1, 2, 0, 5,50.00,60.00,Thursday
8,74927016.09261128
2,2, 1, 2, 0, 6, 0.00,10.00,Thursday
8,76309218.52524827
2,2, 1, 2, 0, 6,10.00,20.00,Thursday
8,76860753.82367174
2,2, 1, 2, 0, 6,20.00,30.00,Thursday
8,77848485.58005647
2,2, 1, 2, 0, 6,30.00,40.00,Thursday
8,78947390.68645567
2,2, 1, 2, 0, 6,40.00,50.00,Thursday
8,80262116.1309804
2,2, 1, 2, 0, 6,50.00,60.00,Thursday
8,80804604.16108422
2,2, 1, 2, 0, 7, 0.00,10.00,Thursday
8,82837715.66483374
2,2, 1, 2, 0, 7,10.00,20.00,Thursday
8,84910142.20765081
2,2, 1, 2, 0, 7,20.00,30.00,Thursday
8,87166757.37786376
2,2, 1, 2, 0, 7,30.00,40.00,Thursday
8,88632790.36648294
2,2, 1, 2, 0, 7,40.00,50.00,Thursday
8,90519569.29376858
2,2, 1, 2, 0, 7,50.00,60.00,Thursday
8,92500784.52842316
2,2, 1, 2, 0, 8, 0.00,10.00,Thursday
8,153701497.18641233
2,2, 1, 2, 0, 8,10.00,20.00,Thursday
8,132899494.35729751
2,2, 1, 2, 0, 8,20.00,30.00,Thursday
8,124592318.45836921
2,2, 1, 2, 0, 8,30.00,40.00,Thursday
8,121296648.05708025
2,2, 1, 2, 0, 8,40.00,50.00,Thursday
8,120604920.31361954
2,2, 1, 2, 0, 8,50.00,60.00,Thursday
8,119438227.67355898
2,2, 1, 2, 0, 9, 0.00,10.00,Thursday
8,132763020.73140018
2,2, 1, 2, 0, 9,10.00,20.00,Thursday
8,171416308.25900745
2,2, 1, 2, 0, 9,20.00,30.00,Thursday
8,151427886.09827745
2,2, 1, 2, 0, 9,30.00,40.00,Thursday
8,153334500.50632548
2,2, 1, 2, 0, 9,40.00,50.00,Thursday
8,153856049.64222965
2,2, 1, 2, 0, 9,50.00,60.00,Thursday
8,155544224.27257523
2,2, 1, 2, 0,10, 0.00,10.00,Thursday
8,245420613.95772123
2,2, 1, 2, 0,10,10.00,20.00,Thursday
8,240621827.13867983
2,2, 1, 2, 0,10,20.00,30.00,Thursday
8,236961130.85542643
2,2, 1, 2, 0,10,30.00,40.00,Thursday
8,233891944.08070964
2,2, 1, 2, 0,10,40.00,50.00,Thursday
8,230878318.12536773
2,2, 1, 2, 0,10,50.00,60.00,Thursday
8,227234636.84262192
2,2, 1, 2, 0,11, 0.00,10.00,Thursday
8,220282980.79035303
2,2, 1, 2, 0,11,10.00,20.00,Thursday
8,218415210.90183482
2,2, 1, 2, 0,11,20.00,30.00,Thursday
8,216408573.78064543
2,2, 1, 2, 0,11,30.00,40.00,Thursday
8,214780096.8304261
2,2, 1, 2, 0,11,40.00,50.00,Thursday
8,213225861.5170758
2,2, 1, 2, 0,11,50.00,60.00,Thursday
8,211849761.05853182
2,2, 1, 2, 0,12, 0.00,10.00,Thursday
8,207006718.2732307
2,2, 1, 2, 0,12,10.00,20.00,Thursday
8,204158674.62696433
2,2, 1, 2, 0,12,20.00,30.00,Thursday
8,201632799.29691008
2,2, 1, 2, 0,12,30.00,40.00,Thursday
8,199237470.5286932
2,2, 1, 2, 0,12,40.00,50.00,Thursday
8,196939740.6790887
2,2, 1, 2, 0,12,50.00,60.00,Thursday
8,194753950.70596012
2,2, 1, 2, 0,13, 0.00,10.00,Thursday
8,191170518.08506924
2,2, 1, 2, 0,13,10.00,20.00,Thursday
8,188221922.84237483
2,2, 1, 2, 0,13,20.00,30.00,Thursday
8,185531820.4682198
2,2, 1, 2, 0,13,30.00,40.00,Thursday
8,182873100.18978858
2,2, 1, 2, 0,13,40.00,50.00,Thursday
8,180251259.78356066
2,2, 1, 2, 0,13,50.00,60.00,Thursday
8,177668856.17054033
2,2, 1, 2, 0,14, 0.00,10.00,Thursday
8,179262275.8226312
2,2, 1, 2, 0,14,10.00,20.00,Thursday
8,181131812.7322855
2,2, 1, 2, 0,14,20.00,30.00,Thursday
8,183070529.90693134
2,2, 1, 2, 0,14,30.00,40.00,Thursday
8,185073442.26779175
2,2, 1, 2, 0,14,40.00,50.00,Thursday
8,187104791.03044212
2,2, 1, 2, 0,14,50.00,60.00,Thursday
8,189152053.73409265
2,2, 1, 2, 0,15, 0.00,10.00,Thursday
8,187709862.10277116
2,2, 1, 2, 0,15,10.00,20.00,Thursday
8,185832260.7045188
2,2, 1, 2, 0,15,20.00,30.00,Thursday
8,183946411.45042443
2,2, 1, 2, 0,15,30.00,40.00,Thursday
8,182104236.62334025
2,2, 1, 2, 0,15,40.00,50.00,Thursday
8,180305952.4074586
2,2, 1, 2, 0,15,50.00,60.00,Thursday
8,178532562.62835464
2,2, 1, 2, 0,16, 0.00,10.00,Thursday
8,179766314.60501513
2,2, 1, 2, 0,16,10.00,20.00,Thursday
8,180191809.72581685
2,2, 1, 2, 0,16,20.00,30.00,Thursday
8,180592227.57840735
2,2, 1, 2, 0,16,30.00,40.00,Thursday
8,181130862.39248687
2,2, 1, 2, 0,16,40.00,50.00,Thursday
8,181780027.4391257
2,2, 1, 2, 0,16,50.00,60.00,Thursday
8,182488226.4248342
2,2, 1, 2, 0,17, 0.00,10.00,Thursday
8,178641579.18800157
2,2, 1, 2, 0,17,10.00,20.00,Thursday
8,174189021.68947732
2,2, 1, 2, 0,17,20.00,30.00,Thursday
8,169066546.27219254
2,2, 1, 2, 0,17,30.00,40.00,Thursday
8,163809277.0401882
2,2, 1, 2, 0,17,40.00,50.00,Thursday
8,158450169.0104597
2,2, 1, 2, 0,17,50.00,60.00,Thursday
8,152414460.073367
2,2, 1, 2, 0,18, 0.00,10.00,Thursday
8,151781451.777562
2,2, 1, 2, 0,18,10.00,20.00,Thursday
8,150382771.96982524
2,2, 1, 2, 0,18,20.00,30.00,Thursday
8,148707457.71936402
2,2, 1, 2, 0,18,30.00,40.00,Thursday
8,146970127.25707895
2,2, 1, 2, 0,18,40.00,50.00,Thursday
8,145196226.3927293
2,2, 1, 2, 0,18,50.00,60.00,Thursday
8,143397329.00164714
2,2, 1, 2, 0,19, 0.00,10.00,Thursday
8,143684986.55612537
2,2, 1, 2, 0,19,10.00,20.00,Thursday
8,143805722.23183188
2,2, 1, 2, 0,19,20.00,30.00,Thursday
8,143413211.7520117
2,2, 1, 2, 0,19,30.00,40.00,Thursday
8,143646332.67174724
2,2, 1, 2, 0,19,40.00,50.00,Thursday
8,143793348.57189676
2,2, 1, 2, 0,19,50.00,60.00,Thursday
8,143713132.27384847
2,2, 1, 2, 0,20, 0.00,10.00,Thursday
8,122409016.7686464
2,2, 1, 2, 0,20,10.00,20.00,Thursday
8,122887419.85250857
2,2, 1, 2, 0,20,20.00,30.00,Thursday
8,123158059.2934139
2,2, 1, 2, 0,20,30.00,40.00,Thursday
8,124257694.73145987
2,2, 1, 2, 0,20,40.00,50.00,Thursday
8,126980970.33100288
2,2, 1, 2, 0,20,50.00,60.00,Thursday
8,127870712.87860914
2,2, 1, 2, 0,21, 0.00,10.00,Thursday
8,124467926.01335767
2,2, 1, 2, 0,21,10.00,20.00,Thursday
8,123305275.37577978
2,2, 1, 2, 0,21,20.00,30.00,Thursday
8,120664289.03043638
2,2, 1, 2, 0,21,30.00,40.00,Thursday
8,118125530.92500342
2,2, 1, 2, 0,21,40.00,50.00,Thursday
8,116006137.18813884
2,2, 1, 2, 0,21,50.00,60.00,Thursday
8,112880331.34202191
2,2, 1, 2, 0,22, 0.00,10.00,Thursday
8,6123593.411613249
2,2, 1, 2, 0,22,10.00,20.00,Thursday
8,7691303.478003256
2,2, 1, 2, 0,22,20.00,30.00,Thursday
8,11027081.807238504
2,2, 1, 2, 0,22,30.00,40.00,Thursday
8,14777925.501741251
2,2, 1, 2, 0,22,40.00,50.00,Thursday
8,20465531.320282217
2,2, 1, 2, 0,22,50.00,60.00,Thursday
8,31272081.943843212
2,2, 1, 2, 0,23, 0.00,10.00,Thursday
8,44298489.73881041
2,2, 1, 2, 0,23,10.00,20.00,Thursday
8,46721257.88695414
2,2, 1, 2, 0,23,20.00,30.00,Thursday
8,49113660.78886815
2,2, 1, 2, 0,23,30.00,40.00,Thursday
8,50761435.125294656
2,2, 1, 2, 0,23,40.00,50.00,Thursday
8,52464685.12017817
2,2, 1, 2, 0,23,50.00,60.00,Thursday
8,54043492.67578628
2,2, 1, 2, 0,24, 0.00,10.00,Thursday
8,57100991.73655004
2,2, 1, 2, 0,24,10.00,20.00,Thursday
8,57277411.969553135
2,2, 1, 2, 0,24,20.00,30.00,Thursday
8,57698229.82002244
2,2, 1, 2, 0,24,30.00,40.00,Thursday
8,58069434.129326575
2,2, 1, 2, 0,24,40.00,50.00,Thursday
8,58937691.32814857
2,2, 1, 2, 0,24,50.00,60.00,Thursday
8,58650102.46488605
2,3, 1, 3, 0, 1, 0.00,10.00,Friday
8,59105865.03951104
2,3, 1, 3, 0, 1,10.00,20.00,Friday
8,58691603.515228264
2,3, 1, 3, 0, 1,20.00,30.00,Friday
8,58679058.363489896
2,3, 1, 3, 0, 1,30.00,40.00,Friday
8,57519978.15214983
2,3, 1, 3, 0, 1,40.00,50.00,Friday
8,56886438.41388373
2,3, 1, 3, 0, 1,50.00,60.00,Friday
8,56231412.29940377
2,3, 1, 3, 0, 2, 0.00,10.00,Friday
8,58782665.71258561
2,3, 1, 3, 0, 2,10.00,20.00,Friday
8,59958190.66310703
2,3, 1, 3, 0, 2,20.00,30.00,Friday
8,61645621.797405474
2,3, 1, 3, 0, 2,30.00,40.00,Friday
8,63322455.2078566
2,3, 1, 3, 0, 2,40.00,50.00,Friday
8,65544922.621223845
2,3, 1, 3, 0, 2,50.00,60.00,Friday
8,66645537.656436495
2,3, 1, 3, 0, 3, 0.00,10.00,Friday
8,67285052.47830515
2,3, 1, 3, 0, 3,10.00,20.00,Friday
8,67890848.5840532
2,3, 1, 3, 0, 3,20.00,30.00,Friday
8,69049876.75576076
2,3, 1, 3, 0, 3,30.00,40.00,Friday
8,69094430.25652196
2,3, 1, 3, 0, 3,40.00,50.00,Friday
8,69695124.04572563
2,3, 1, 3, 0, 3,50.00,60.00,Friday
8,70295192.44084546
2,3, 1, 3, 0, 4, 0.00,10.00,Friday
8,70730795.23464206
2,3, 1, 3, 0, 4,10.00,20.00,Friday
8,70034902.82249527
2,3, 1, 3, 0, 4,20.00,30.00,Friday
8,69896608.98504665
2,3, 1, 3, 0, 4,30.00,40.00,Friday
8,69760196.25282162
2,3, 1, 3, 0, 4,40.00,50.00,Friday
8,70181879.64806178
2,3, 1, 3, 0, 4,50.00,60.00,Friday
8,69488424.39850377
2,3, 1, 3, 0, 5, 0.00,10.00,Friday
8,71618587.18457344
2,3, 1, 3, 0, 5,10.00,20.00,Friday
8,73674472.79112673
2,3, 1, 3, 0, 5,20.00,30.00,Friday
8,76274405.66609351
2,3, 1, 3, 0, 5,30.00,40.00,Friday
8,77756423.68871973
2,3, 1, 3, 0, 5,40.00,50.00,Friday
8,79796351.18457113
2,3, 1, 3, 0, 5,50.00,60.00,Friday
8,81838100.41291502
2,3, 1, 3, 0, 6, 0.00,10.00,Friday
8,83964136.34352154
2,3, 1, 3, 0, 6,10.00,20.00,Friday
8,84996338.98795612
2,3, 1, 3, 0, 6,20.00,30.00,Friday
8,86589235.62966533
2,3, 1, 3, 0, 6,30.00,40.00,Friday
8,88180989.54947138
2,3, 1, 3, 0, 6,40.00,50.00,Friday
8,90330517.8036603
2,3, 1, 3, 0, 6,50.00,60.00,Friday
8,91358107.4862662
2,3, 1, 3, 0, 7, 0.00,10.00,Friday
8,89894255.04649113
2,3, 1, 3, 0, 7,10.00,20.00,Friday
8,88452662.84903927
2,3, 1, 3, 0, 7,20.00,30.00,Friday
8,87581916.40012889
2,3, 1, 3, 0, 7,30.00,40.00,Friday
8,85604152.05806693
2,3, 1, 3, 0, 7,40.00,50.00,Friday
8,84196662.37602599
2,3, 1, 3, 0, 7,50.00,60.00,Friday
8,82801225.92301074
2,3, 1, 3, 0, 8, 0.00,10.00,Friday
8,137757266.94878927
2,3, 1, 3, 0, 8,10.00,20.00,Friday
8,103918676.9511417
2,3, 1, 3, 0, 8,20.00,30.00,Friday
8,99940595.91812997
2,3, 1, 3, 0, 8,30.00,40.00,Friday
8,93104845.99053095
2,3, 1, 3, 0, 8,40.00,50.00,Friday
8,87858217.02531616
2,3, 1, 3, 0, 8,50.00,60.00,Friday
8,83129767.73453738
2,3, 1, 3, 0, 9, 0.00,10.00,Friday
8,123832205.57939872
2,3, 1, 3, 0, 9,10.00,20.00,Friday
8,122491937.0552931
2,3, 1, 3, 0, 9,20.00,30.00,Friday
8,91143580.80482699
2,3, 1, 3, 0, 9,30.00,40.00,Friday
8,101899555.97482237
2,3, 1, 3, 0, 9,40.00,50.00,Friday
8,97172123.32155882
2,3, 1, 3, 0, 9,50.00,60.00,Friday
8,96075018.85375421
2,3, 1, 3, 0,10, 0.00,10.00,Friday
8,160326104.53964126
2,3, 1, 3, 0,10,10.00,20.00,Friday
8,153569547.39204112
2,3, 1, 3, 0,10,20.00,30.00,Friday
8,148056750.40214562
2,3, 1, 3, 0,10,30.00,40.00,Friday
8,142948542.36004025
2,3, 1, 3, 0,10,40.00,50.00,Friday
8,137999134.42279997
2,3, 1, 3, 0,10,50.00,60.00,Friday
8,133297339.5485194
2,3, 1, 3, 0,11, 0.00,10.00,Friday
8,132432197.03050582
2,3, 1, 3, 0,11,10.00,20.00,Friday
8,134621383.6163957
2,3, 1, 3, 0,11,20.00,30.00,Friday
8,137325823.22085467
2,3, 1, 3, 0,11,30.00,40.00,Friday
8,140095256.134512
2,3, 1, 3, 0,11,40.00,50.00,Friday
8,143102887.3148105
2,3, 1, 3, 0,11,50.00,60.00,Friday
8,146241188.54653752
2,3, 1, 3, 0,12, 0.00,10.00,Friday
8,144623935.27405056
2,3, 1, 3, 0,12,10.00,20.00,Friday
8,143971238.97846213
2,3, 1, 3, 0,12,20.00,30.00,Friday
8,143483314.86322296
2,3, 1, 3, 0,12,30.00,40.00,Friday
8,143099042.6604457
2,3, 1, 3, 0,12,40.00,50.00,Friday
8,142780994.97652495
2,3, 1, 3, 0,12,50.00,60.00,Friday
8,142648960.696778
2,3, 1, 3, 0,13, 0.00,10.00,Friday
8,140560717.13649794
2,3, 1, 3, 0,13,10.00,20.00,Friday
8,138949587.13925204
2,3, 1, 3, 0,13,20.00,30.00,Friday
8,137456940.03839052
2,3, 1, 3, 0,13,30.00,40.00,Friday
8,135989742.299527
2,3, 1, 3, 0,13,40.00,50.00,Friday
8,134550409.05627352
2,3, 1, 3, 0,13,50.00,60.00,Friday
8,133132963.88019307
2,3, 1, 3, 0,14, 0.00,10.00,Friday
8,132534285.50744356
2,3, 1, 3, 0,14,10.00,20.00,Friday
8,132248698.46731924
2,3, 1, 3, 0,14,20.00,30.00,Friday
8,131942349.40515971
2,3, 1, 3, 0,14,30.00,40.00,Friday
8,131517881.02918644
2,3, 1, 3, 0,14,40.00,50.00,Friday
8,130968252.91629562
2,3, 1, 3, 0,14,50.00,60.00,Friday
8,130475696.41990277
2,3, 1, 3, 0,15, 0.00,10.00,Friday
8,127685318.99602011
2,3, 1, 3, 0,15,10.00,20.00,Friday
8,125652554.47122459
2,3, 1, 3, 0,15,20.00,30.00,Friday
8,123741092.35010956
2,3, 1, 3, 0,15,30.00,40.00,Friday
8,122004779.1301741
2,3, 1, 3, 0,15,40.00,50.00,Friday
8,120384890.69591922
2,3, 1, 3, 0,15,50.00,60.00,Friday
8,118812211.01189093
2,3, 1, 3, 0,16, 0.00,10.00,Friday
8,116645212.54416133
2,3, 1, 3, 0,16,10.00,20.00,Friday
8,114913672.27066621
2,3, 1, 3, 0,16,20.00,30.00,Friday
8,113245877.8884937
2,3, 1, 3, 0,16,30.00,40.00,Friday
8,111776093.49099384
2,3, 1, 3, 0,16,40.00,50.00,Friday
8,110465344.04960638
2,3, 1, 3, 0,16,50.00,60.00,Friday
8,109280725.54996425
2,3, 1, 3, 0,17, 0.00,10.00,Friday
8,107759553.62697688
2,3, 1, 3, 0,17,10.00,20.00,Friday
8,106490361.3887644
2,3, 1, 3, 0,17,20.00,30.00,Friday
8,104715417.66525649
2,3, 1, 3, 0,17,30.00,40.00,Friday
8,102846349.78958513
2,3, 1, 3, 0,17,40.00,50.00,Friday
8,100955042.96139358
2,3, 1, 3, 0,17,50.00,60.00,Friday
8,98479332.88994698
2,3, 1, 3, 0,18, 0.00,10.00,Friday
8,98928807.21617042
2,3, 1, 3, 0,18,10.00,20.00,Friday
8,99025354.57760924
2,3, 1, 3, 0,18,20.00,30.00,Friday
8,98889776.73984453
2,3, 1, 3, 0,18,30.00,40.00,Friday
8,98720950.23092885
2,3, 1, 3, 0,18,40.00,50.00,Friday
8,98522434.39834997
2,3, 1, 3, 0,18,50.00,60.00,Friday
8,98300495.91932659
2,3, 1, 3, 0,19, 0.00,10.00,Friday
8,97108144.77881804
2,3, 1, 3, 0,19,10.00,20.00,Friday
8,95945205.58873212
2,3, 1, 3, 0,19,20.00,30.00,Friday
8,94468309.37473859
2,3, 1, 3, 0,19,30.00,40.00,Friday
8,93640489.16346326
2,3, 1, 3, 0,19,40.00,50.00,Friday
8,92588286.18884648
2,3, 1, 3, 0,19,50.00,60.00,Friday
8,91396729.37582691
2,3, 1, 3, 0,20, 0.00,10.00,Friday
8,78150807.67958988
2,3, 1, 3, 0,20,10.00,20.00,Friday
8,80675191.59740184
2,3, 1, 3, 0,20,20.00,30.00,Friday
8,82719469.03041176
2,3, 1, 3, 0,20,30.00,40.00,Friday
8,84568084.15931715
2,3, 1, 3, 0,20,40.00,50.00,Friday
8,91377479.15491083
2,3, 1, 3, 0,20,50.00,60.00,Friday
8,91760494.7093304
2,3, 1, 3, 0,21, 0.00,10.00,Friday
8,93924283.54103532
2,3, 1, 3, 0,21,10.00,20.00,Friday
8,97904661.54240386
2,3, 1, 3, 0,21,20.00,30.00,Friday
8,100363864.23306154
2,3, 1, 3, 0,21,30.00,40.00,Friday
8,103198827.11586188
2,3, 1, 3, 0,21,40.00,50.00,Friday
8,106247858.53517678
2,3, 1, 3, 0,21,50.00,60.00,Friday
8,108324648.8944938
2,3, 1, 3, 0,22, 0.00,10.00,Friday
8,10069278.300018549
2,3, 1, 3, 0,22,10.00,20.00,Friday
8,11819568.47997515
2,3, 1, 3, 0,22,20.00,30.00,Friday
8,14894887.49744465
2,3, 1, 3, 0,22,30.00,40.00,Friday
8,28308176.031887628
2,3, 1, 3, 0,22,40.00,50.00,Friday
8,46551765.418659374
2,3, 1, 3, 0,22,50.00,60.00,Friday
8,32224269.574428648
2,3, 1, 3, 0,23, 0.00,10.00,Friday
8,40118287.48462045
2,3, 1, 3, 0,23,10.00,20.00,Friday
8,41950802.67678443
2,3, 1, 3, 0,23,20.00,30.00,Friday
8,43172384.7168543
2,3, 1, 3, 0,23,30.00,40.00,Friday
8,43219546.7158302
2,3, 1, 3, 0,23,40.00,50.00,Friday
8,43695112.29924231
2,3, 1, 3, 0,23,50.00,60.00,Friday
8,44073100.31320575
2,3, 1, 3, 0,24, 0.00,10.00,Friday
8,48054061.81097719
2,3, 1, 3, 0,24,10.00,20.00,Friday
8,49163122.08275702
2,3, 1, 3, 0,24,20.00,30.00,Friday
8,50478666.178304195
2,3, 1, 3, 0,24,30.00,40.00,Friday
8,51735477.39673433
2,3, 1, 3, 0,24,40.00,50.00,Friday
8,53483346.8160832
2,3, 1, 3, 0,24,50.00,60.00,Friday
8,54073755.47594055
2,4, 1, 4, 0, 1, 0.00,10.00,Saturday
8,53897509.3017065
2,4, 1, 4, 0, 1,10.00,20.00,Saturday
8,52925484.634947814
2,4, 1, 4, 0, 1,20.00,30.00,Saturday
8,52364495.96275968
2,4, 1, 4, 0, 1,30.00,40.00,Saturday
8,50657204.98369705
2,4, 1, 4, 0, 1,40.00,50.00,Saturday
8,49469104.851461016
2,4, 1, 4, 0, 1,50.00,60.00,Saturday
8,48252227.41662527
2,4, 1, 4, 0, 2, 0.00,10.00,Saturday
8,50116527.15484936
2,4, 1, 4, 0, 2,10.00,20.00,Saturday
8,50543502.74093261
2,4, 1, 4, 0, 2,20.00,30.00,Saturday
8,51474274.48993064
2,4, 1, 4, 0, 2,30.00,40.00,Saturday
8,52397698.54066929
2,4, 1, 4, 0, 2,40.00,50.00,Saturday
8,53869709.40604597
2,4, 1, 4, 0, 2,50.00,60.00,Saturday
8,54227802.01879844
2,4, 1, 4, 0, 3, 0.00,10.00,Saturday
8,56124771.60884305
2,4, 1, 4, 0, 3,10.00,20.00,Saturday
8,57898361.68737502
2,4, 1, 4, 0, 3,20.00,30.00,Saturday
8,60224474.09092643
2,4, 1, 4, 0, 3,30.00,40.00,Saturday
8,61456725.17873523
2,4, 1, 4, 0, 3,40.00,50.00,Saturday
8,63260416.03940766
2,4, 1, 4, 0, 3,50.00,60.00,Saturday
8,65081727.51301371
2,4, 1, 4, 0, 4, 0.00,10.00,Saturday
8,62463965.68215919
2,4, 1, 4, 0, 4,10.00,20.00,Saturday
8,58632931.592845134
2,4, 1, 4, 0, 4,20.00,30.00,Saturday
8,55326757.75459371
2,4, 1, 4, 0, 4,30.00,40.00,Saturday
8,52000277.7792776
2,4, 1, 4, 0, 4,40.00,50.00,Saturday
8,49206450.78790732
2,4, 1, 4, 0, 4,50.00,60.00,Saturday
8,45281237.06312559
2,4, 1, 4, 0, 5, 0.00,10.00,Saturday
8,48959350.09454546
2,4, 1, 4, 0, 5,10.00,20.00,Saturday
8,52546330.3039682
2,4, 1, 4, 0, 5,20.00,30.00,Saturday
8,56727024.05629612
2,4, 1, 4, 0, 5,30.00,40.00,Saturday
8,59858052.20765183
2,4, 1, 4, 0, 5,40.00,50.00,Saturday
8,63602942.61808133
2,4, 1, 4, 0, 5,50.00,60.00,Saturday
8,67408256.10048388
2,4, 1, 4, 0, 6, 0.00,10.00,Saturday
8,69224035.32654063
2,4, 1, 4, 0, 6,10.00,20.00,Saturday
8,69726533.77233118
2,4, 1, 4, 0, 6,20.00,30.00,Saturday
8,70749445.32316749
2,4, 1, 4, 0, 6,30.00,40.00,Saturday
8,71767370.45166035
2,4, 1, 4, 0, 6,40.00,50.00,Saturday
8,73335889.04690357
2,4, 1, 4, 0, 6,50.00,60.00,Saturday
8,73795206.02587038
2,4, 1, 4, 0, 7, 0.00,10.00,Saturday
8,70059763.290313
2,4, 1, 4, 0, 7,10.00,20.00,Saturday
8,66249636.028199814
2,4, 1, 4, 0, 7,20.00,30.00,Saturday
8,62964249.649286576
2,4, 1, 4, 0, 7,30.00,40.00,Saturday
8,58552416.193152145
2,4, 1, 4, 0, 7,40.00,50.00,Saturday
8,54676822.247179724
2,4, 1, 4, 0, 7,50.00,60.00,Saturday
8,50784382.50676778
2,4, 1, 4, 0, 8, 0.00,10.00,Saturday
8,95116887.50954157
2,4, 1, 4, 0, 8,10.00,20.00,Saturday
8,41648298.173155434
2,4, 1, 4, 0, 8,20.00,30.00,Saturday
8,72322351.80440861
2,4, 1, 4, 0, 8,30.00,40.00,Saturday
8,67860282.72230469
2,4, 1, 4, 0, 8,40.00,50.00,Saturday
8,67970133.87612242
2,4, 1, 4, 0, 8,50.00,60.00,Saturday
8,67836922.25644971
2,4, 1, 4, 0, 9, 0.00,10.00,Saturday
8,116230134.31029591
2,4, 1, 4, 0, 9,10.00,20.00,Saturday
8,112069426.07920696
2,4, 1, 4, 0, 9,20.00,30.00,Saturday
8,89532222.97392225
2,4, 1, 4, 0, 9,30.00,40.00,Saturday
8,92248838.6192747
2,4, 1, 4, 0, 9,40.00,50.00,Saturday
8,91899918.75117292
2,4, 1, 4, 0, 9,50.00,60.00,Saturday
8,90402444.46258475
2,4, 1, 4, 0,10, 0.00,10.00,Saturday
8,162070561.6391135
2,4, 1, 4, 0,10,10.00,20.00,Saturday
8,157796036.531411
2,4, 1, 4, 0,10,20.00,30.00,Saturday
8,157675922.20433053
2,4, 1, 4, 0,10,30.00,40.00,Saturday
8,159429620.9047326
2,4, 1, 4, 0,10,40.00,50.00,Saturday
8,159676193.2385085
2,4, 1, 4, 0,10,50.00,60.00,Saturday
8,161864464.52747044
2,4, 1, 4, 0,11, 0.00,10.00,Saturday
8,156887383.71779904
2,4, 1, 4, 0,11,10.00,20.00,Saturday
8,155759619.17090756
2,4, 1, 4, 0,11,20.00,30.00,Saturday
8,155012216.83539602
2,4, 1, 4, 0,11,30.00,40.00,Saturday
8,154298504.54526064
2,4, 1, 4, 0,11,40.00,50.00,Saturday
8,153917177.04261023
2,4, 1, 4, 0,11,50.00,60.00,Saturday
8,153627047.24590868
2,4, 1, 4, 0,12, 0.00,10.00,Saturday
8,150243095.15938208
2,4, 1, 4, 0,12,10.00,20.00,Saturday
8,148724075.46828592
2,4, 1, 4, 0,12,20.00,30.00,Saturday
8,147383888.7783582
2,4, 1, 4, 0,12,30.00,40.00,Saturday
8,146119489.77328467
2,4, 1, 4, 0,12,40.00,50.00,Saturday
8,144844491.97899163
2,4, 1, 4, 0,12,50.00,60.00,Saturday
8,143668767.97266176
2,4, 1, 4, 0,13, 0.00,10.00,Saturday
8,143240154.53399667
2,4, 1, 4, 0,13,10.00,20.00,Saturday
8,144412031.09428754
2,4, 1, 4, 0,13,20.00,30.00,Saturday
8,145361554.74313414
2,4, 1, 4, 0,13,30.00,40.00,Saturday
8,146297250.10206744
2,4, 1, 4, 0,13,40.00,50.00,Saturday
8,147248720.7017458
2,4, 1, 4, 0,13,50.00,60.00,Saturday
8,148206525.73121414
2,4, 1, 4, 0,14, 0.00,10.00,Saturday
8,144740971.43509296
2,4, 1, 4, 0,14,10.00,20.00,Saturday
8,142366923.4785115