Program Version,EnergyPlus, Version 23.2.0-7636e6b3e9, YMD=2025.01.12 17:47
1,5,Environment Title[],Latitude[deg],Longitude[deg],Time Zone[],Elevation[m]
2,8,Day of Simulation[],Month[],Day of Month[],DST Indicator[1=yes 0=no],Hour[],StartMinute[],EndMinute[],DayType
3,5,Cumulative Day of Simulation[],Month[],Day of Month[],DST Indicator[1=yes 0=no],DayType  ! When Daily Report Variables Requested
4,2,Cumulative Days of Simulation[],Month[]  ! When Monthly Report Variables Requested
5,1,Cumulative Days of Simulation[] ! When Run Period Report Variables Requested
6,1,Calendar Year of Simulation[] ! When Annual Report Variables Requested
8,1,Electricity:Facility [J] !TimeStep
916,1,DistrictCooling:Facility [J] !TimeStep
End of Data Dictionary
1,CALGARY INTL AP ANN CLG .4% CONDNS DB=>MWB HVAC Sizing Pass 1,  51.11,-114.02,  -7.00,1084.10
2,1, 7,21, 0, 1, 0.00,10.00,SummerDesignDay
8,1291806.0197999983
916,0.0
2,1, 7,21, 0, 1,10.00,20.00,SummerDesignDay
8,1291806.0197999983
916,0.0
2,1, 7,21, 0, 1,20.00,30.00,SummerDesignDay
8,1291806.0197999983
916,0.0
2,1, 7,21, 0, 1,30.00,40.00,SummerDesignDay
8,1291806.0197999983
916,0.0
2,1, 7,21, 0, 1,40.00,50.00,SummerDesignDay
8,1291806.0197999983
916,0.0
2,1, 7,21, 0, 1,50.00,60.00,SummerDesignDay
8,1291806.0197999983
916,0.0
2,1, 7,21, 0, 2, 0.00,10.00,SummerDesignDay
8,1291806.0197999983
916,0.0
2,1, 7,21, 0, 2,10.00,20.00,SummerDesignDay
8,1291806.0197999983
916,0.0
2,1, 7,21, 0, 2,20.00,30.00,SummerDesignDay
8,1291806.0197999983
916,0.0
2,1, 7,21, 0, 2,30.00,40.00,SummerDesignDay
8,1291806.0197999983
916,0.0
2,1, 7,21, 0, 2,40.00,50.00,SummerDesignDay
8,1291806.0197999983
916,0.0
2,1, 7,21, 0, 2,50.00,60.00,SummerDesignDay
8,1291806.0197999983
916,0.0
2,1, 7,21, 0, 3, 0.00,10.00,SummerDesignDay
8,1291806.0197999983
916,0.0
2,1, 7,21, 0, 3,10.00,20.00,SummerDesignDay
8,1291806.0197999983
916,0.0
2,1, 7,21, 0, 3,20.00,30.00,SummerDesignDay
8,1291806.0197999983
916,0.0
2,1, 7,21, 0, 3,30.00,40.00,SummerDesignDay
8,1291806.0197999983
916,0.0
2,1, 7,21, 0, 3,40.00,50.00,SummerDesignDay
8,1291806.0197999983
916,0.0
2,1, 7,21, 0, 3,50.00,60.00,SummerDesignDay
8,1291806.0197999983
916,0.0
2,1, 7,21, 0, 4, 0.00,10.00,SummerDesignDay
8,1291806.0197999983
916,0.0
2,1, 7,21, 0, 4,10.00,20.00,SummerDesignDay
8,1291806.0197999983
916,0.0
2,1, 7,21, 0, 4,20.00,30.00,SummerDesignDay
8,1291806.0197999983
916,0.0
2,1, 7,21, 0, 4,30.00,40.00,SummerDesignDay
8,1291806.0197999983
916,0.0
2,1, 7,21, 0, 4,40.00,50.00,SummerDesignDay
8,1291806.0197999983
916,0.0
2,1, 7,21, 0, 4,50.00,60.00,SummerDesignDay
8,1291806.0197999983
916,0.0
2,1, 7,21, 0, 5, 0.00,10.00,SummerDesignDay
8,1291806.0197999983
916,0.0
2,1, 7,21, 0, 5,10.00,20.00,SummerDesignDay
8,1291806.0197999983
916,0.0
2,1, 7,21, 0, 5,20.00,30.00,SummerDesignDay
8,1291806.0197999983
916,0.0
2,1, 7,21, 0, 5,30.00,40.00,SummerDesignDay
8,1291806.0197999983
916,0.0
2,1, 7,21, 0, 5,40.00,50.00,SummerDesignDay
8,1291806.0197999983
916,0.0
2,1, 7,21, 0, 5,50.00,60.00,SummerDesignDay
8,1291806.0197999983
916,0.0
2,1, 7,21, 0, 6, 0.00,10.00,SummerDesignDay
8,1291806.0197999983
916,0.0
2,1, 7,21, 0, 6,10.00,20.00,SummerDesignDay
8,1291806.0197999983
916,0.0
2,1, 7,21, 0, 6,20.00,30.00,SummerDesignDay
8,1291806.0197999983
916,0.0
2,1, 7,21, 0, 6,30.00,40.00,SummerDesignDay
8,1291806.0197999983
916,0.0
2,1, 7,21, 0, 6,40.00,50.00,SummerDesignDay
8,1291806.0197999983
916,0.0
2,1, 7,21, 0, 6,50.00,60.00,SummerDesignDay
8,1291806.0197999983
916,0.0
2,1, 7,21, 0, 7, 0.00,10.00,SummerDesignDay
8,1291806.0197999983
916,0.0
2,1, 7,21, 0, 7,10.00,20.00,SummerDesignDay
8,1291806.0197999983
916,0.0
2,1, 7,21, 0, 7,20.00,30.00,SummerDesignDay
8,1291806.0197999983
916,0.0
2,1, 7,21, 0, 7,30.00,40.00,SummerDesignDay
8,1291806.0197999983
916,0.0
2,1, 7,21, 0, 7,40.00,50.00,SummerDesignDay
8,1291806.0197999983
916,0.0
2,1, 7,21, 0, 7,50.00,60.00,SummerDesignDay
8,1291806.0197999983
916,0.0
2,1, 7,21, 0, 8, 0.00,10.00,SummerDesignDay
8,1291806.0197999983
916,0.0
2,1, 7,21, 0, 8,10.00,20.00,SummerDesignDay
8,1291806.0197999983
916,0.0
2,1, 7,21, 0, 8,20.00,30.00,SummerDesignDay
8,1291806.0197999983
916,0.0
2,1, 7,21, 0, 8,30.00,40.00,SummerDesignDay
8,1291806.0197999983
916,0.0
2,1, 7,21, 0, 8,40.00,50.00,SummerDesignDay
8,1291806.0197999983
916,0.0
2,1, 7,21, 0, 8,50.00,60.00,SummerDesignDay
8,1291806.0197999983
916,0.0
2,1, 7,21, 0, 9, 0.00,10.00,SummerDesignDay
8,12918060.197999982
916,0.0
2,1, 7,21, 0, 9,10.00,20.00,SummerDesignDay
8,12918060.197999982
916,0.0
2,1, 7,21, 0, 9,20.00,30.00,SummerDesignDay
8,12918060.197999982
916,0.0
2,1, 7,21, 0, 9,30.00,40.00,SummerDesignDay
8,12918060.197999982
916,0.0
2,1, 7,21, 0, 9,40.00,50.00,SummerDesignDay
8,12918060.197999982
916,0.0
2,1, 7,21, 0, 9,50.00,60.00,SummerDesignDay
8,12918060.197999982
916,0.0
2,1, 7,21, 0,10, 0.00,10.00,SummerDesignDay
8,23252508.356399987
916,0.0
2,1, 7,21, 0,10,10.00,20.00,SummerDesignDay
8,23252508.356399987
916,0.0
2,1, 7,21, 0,10,20.00,30.00,SummerDesignDay
8,23252508.356399987
916,0.0
2,1, 7,21, 0,10,30.00,40.00,SummerDesignDay
8,23252508.356399987
916,614014.6895565962
2,1, 7,21, 0,10,40.00,50.00,SummerDesignDay
8,23252508.356399987
916,2254853.6596782394
2,1, 7,21, 0,10,50.00,60.00,SummerDesignDay
8,23252508.356399987
916,7453344.257889221
2,1, 7,21, 0,11, 0.00,10.00,SummerDesignDay
8,23252508.356399987
916,12710581.01272807
2,1, 7,21, 0,11,10.00,20.00,SummerDesignDay
8,23252508.356399987
916,15794092.798549792
2,1, 7,21, 0,11,20.00,30.00,SummerDesignDay
8,23252508.356399987
916,18116293.17505285
2,1, 7,21, 0,11,30.00,40.00,SummerDesignDay
8,23252508.356399987
916,20404363.14822783
2,1, 7,21, 0,11,40.00,50.00,SummerDesignDay
8,23252508.356399987
916,22509114.934625458
2,1, 7,21, 0,11,50.00,60.00,SummerDesignDay
8,23252508.356399987
916,24455300.29297641
2,1, 7,21, 0,12, 0.00,10.00,SummerDesignDay
8,23252508.356399987
916,31318754.834625296
2,1, 7,21, 0,12,10.00,20.00,SummerDesignDay
8,23252508.356399987
916,33835503.84638229
2,1, 7,21, 0,12,20.00,30.00,SummerDesignDay
8,23252508.356399987
916,35676867.07579915
2,1, 7,21, 0,12,30.00,40.00,SummerDesignDay
8,23252508.356399987
916,37304655.714999735
2,1, 7,21, 0,12,40.00,50.00,SummerDesignDay
8,23252508.356399987
916,38745255.55473228
2,1, 7,21, 0,12,50.00,60.00,SummerDesignDay
8,23252508.356399987
916,40037827.180069536
2,1, 7,21, 0,13, 0.00,10.00,SummerDesignDay
8,23252508.356399987
916,45523097.01347116
2,1, 7,21, 0,13,10.00,20.00,SummerDesignDay
8,23252508.356399987
916,47115285.07241155
2,1, 7,21, 0,13,20.00,30.00,SummerDesignDay
8,23252508.356399987
916,48320313.30787132
2,1, 7,21, 0,13,30.00,40.00,SummerDesignDay
8,23252508.356399987
916,49383641.29098509
2,1, 7,21, 0,13,40.00,50.00,SummerDesignDay
8,23252508.356399987
916,50323629.24593324
2,1, 7,21, 0,13,50.00,60.00,SummerDesignDay
8,23252508.356399987
916,51166384.50698057
2,1, 7,21, 0,14, 0.00,10.00,SummerDesignDay
8,23252508.356399987
916,53521037.448816165
2,1, 7,21, 0,14,10.00,20.00,SummerDesignDay
8,23252508.356399987
916,54268779.09834549
2,1, 7,21, 0,14,20.00,30.00,SummerDesignDay
8,23252508.356399987
916,54833011.204719715
2,1, 7,21, 0,14,30.00,40.00,SummerDesignDay
8,23252508.356399987
916,55319400.9089617
2,1, 7,21, 0,14,40.00,50.00,SummerDesignDay
8,23252508.356399987
916,55744741.05976549
2,1, 7,21, 0,14,50.00,60.00,SummerDesignDay
8,23252508.356399987
916,56120746.63521923
2,1, 7,21, 0,15, 0.00,10.00,SummerDesignDay
8,23252508.356399987
916,56066551.00307722
2,1, 7,21, 0,15,10.00,20.00,SummerDesignDay
8,23252508.356399987
916,56000818.17245838
2,1, 7,21, 0,15,20.00,30.00,SummerDesignDay
8,23252508.356399987
916,55904210.43973632
2,1, 7,21, 0,15,30.00,40.00,SummerDesignDay
8,23252508.356399987
916,55778113.88178107
2,1, 7,21, 0,15,40.00,50.00,SummerDesignDay
8,23252508.356399987
916,55624891.30602524
2,1, 7,21, 0,15,50.00,60.00,SummerDesignDay
8,23252508.356399987
916,55446230.468597464
2,1, 7,21, 0,16, 0.00,10.00,SummerDesignDay
8,23252508.356399987
916,53370881.93390611
2,1, 7,21, 0,16,10.00,20.00,SummerDesignDay
8,23252508.356399987
916,52510608.97795652
2,1, 7,21, 0,16,20.00,30.00,SummerDesignDay
8,23252508.356399987
916,51732290.34908552
2,1, 7,21, 0,16,30.00,40.00,SummerDesignDay
8,23252508.356399987
916,50957025.526087716
2,1, 7,21, 0,16,40.00,50.00,SummerDesignDay
8,23252508.356399987
916,50181196.87518259
2,1, 7,21, 0,16,50.00,60.00,SummerDesignDay
8,23252508.356399987
916,49400550.49478891
2,1, 7,21, 0,17, 0.00,10.00,SummerDesignDay
8,23252508.356399987
916,46452566.842767455
2,1, 7,21, 0,17,10.00,20.00,SummerDesignDay
8,23252508.356399987
916,45210274.275063284
2,1, 7,21, 0,17,20.00,30.00,SummerDesignDay
8,23252508.356399987
916,44126587.82679441
2,1, 7,21, 0,17,30.00,40.00,SummerDesignDay
8,23252508.356399987
916,43076928.8099257
2,1, 7,21, 0,17,40.00,50.00,SummerDesignDay
8,23252508.356399987
916,42056812.08649482
2,1, 7,21, 0,17,50.00,60.00,SummerDesignDay
8,23252508.356399987
916,41064746.76778113
2,1, 7,21, 0,18, 0.00,10.00,SummerDesignDay
8,23252508.356399987
916,37536289.54909709
2,1, 7,21, 0,18,10.00,20.00,SummerDesignDay
8,23252508.356399987
916,36132384.42020847
2,1, 7,21, 0,18,20.00,30.00,SummerDesignDay
8,23252508.356399987
916,34937925.39158718
2,1, 7,21, 0,18,30.00,40.00,SummerDesignDay
8,23252508.356399987
916,33852971.473867655
2,1, 7,21, 0,18,40.00,50.00,SummerDesignDay
8,23252508.356399987
916,32832073.85618873
2,1, 7,21, 0,18,50.00,60.00,SummerDesignDay
8,23252508.356399987
916,31821157.753186874
2,1, 7,21, 0,19, 0.00,10.00,SummerDesignDay
8,23252508.356399987
916,28552008.51212718
2,1, 7,21, 0,19,10.00,20.00,SummerDesignDay
8,23252508.356399987
916,26996772.37178948
2,1, 7,21, 0,19,20.00,30.00,SummerDesignDay
8,23252508.356399987
916,25571991.940672446
2,1, 7,21, 0,19,30.00,40.00,SummerDesignDay
8,23252508.356399987
916,24185623.09237181
2,1, 7,21, 0,19,40.00,50.00,SummerDesignDay
8,23252508.356399987
916,22845830.143494144
2,1, 7,21, 0,19,50.00,60.00,SummerDesignDay
8,23252508.356399987
916,21523915.53162618
2,1, 7,21, 0,20, 0.00,10.00,SummerDesignDay
8,15501672.237599976
916,15377477.10913429
2,1, 7,21, 0,20,10.00,20.00,SummerDesignDay
8,15501672.237599976
916,13780729.492701592
2,1, 7,21, 0,20,20.00,30.00,SummerDesignDay
8,15501672.237599976
916,12459815.32929974
2,1, 7,21, 0,20,30.00,40.00,SummerDesignDay
8,15501672.237599976
916,11219515.991860285
2,1, 7,21, 0,20,40.00,50.00,SummerDesignDay
8,15501672.237599976
916,10033957.492585676
2,1, 7,21, 0,20,50.00,60.00,SummerDesignDay
8,15501672.237599976
916,8879226.01237249
2,1, 7,21, 0,21, 0.00,10.00,SummerDesignDay
8,12918060.197999982
916,5241483.626696941
2,1, 7,21, 0,21,10.00,20.00,SummerDesignDay
8,12918060.197999982
916,3928571.3860262213
2,1, 7,21, 0,21,20.00,30.00,SummerDesignDay
8,12918060.197999982
916,2822017.1033209446
2,1, 7,21, 0,21,30.00,40.00,SummerDesignDay
8,12918060.197999982
916,1768412.810282326
2,1, 7,21, 0,21,40.00,50.00,SummerDesignDay
8,12918060.197999982
916,857418.4869188741
2,1, 7,21, 0,21,50.00,60.00,SummerDesignDay
8,12918060.197999982
916,18946.59389989336
2,1, 7,21, 0,22, 0.00,10.00,SummerDesignDay
8,1291806.0197999983
916,0.0
2,1, 7,21, 0,22,10.00,20.00,SummerDesignDay
8,1291806.0197999983
916,0.0
2,1, 7,21, 0,22,20.00,30.00,SummerDesignDay
8,1291806.0197999983
916,0.0
2,1, 7,21, 0,22,30.00,40.00,SummerDesignDay
8,1291806.0197999983
916,0.0
2,1, 7,21, 0,22,40.00,50.00,SummerDesignDay
8,1291806.0197999983
916,0.0
2,1, 7,21, 0,22,50.00,60.00,SummerDesignDay
8,1291806.0197999983
916,0.0
2,1, 7,21, 0,23, 0.00,10.00,SummerDesignDay
8,1291806.0197999983
916,0.0
2,1, 7,21, 0,23,10.00,20.00,SummerDesignDay
8,1291806.0197999983
916,0.0
2,1, 7,21, 0,23,20.00,30.00,SummerDesignDay
8,1291806.0197999983
916,0.0
2,1, 7,21, 0,23,30.00,40.00,SummerDesignDay
8,1291806.0197999983
916,0.0
2,1, 7,21, 0,23,40.00,50.00,SummerDesignDay
8,1291806.0197999983
916,0.0
2,1, 7,21, 0,23,50.00,60.00,SummerDesignDay
8,1291806.0197999983
916,0.0
2,1, 7,21, 0,24, 0.00,10.00,SummerDesignDay
8,1291806.0197999983
916,0.0
2,1, 7,21, 0,24,10.00,20.00,SummerDesignDay
8,1291806.0197999983
916,0.0
2,1, 7,21, 0,24,20.00,30.00,SummerDesignDay
8,1291806.0197999983
916,0.0
2,1, 7,21, 0,24,30.00,40.00,SummerDesignDay
8,1291806.0197999983
916,0.0
2,1, 7,21, 0,24,40.00,50.00,SummerDesignDay
8,1291806.0197999983
916,0.0
2,1, 7,21, 0,24,50.00,60.00,SummerDesignDay
8,1291806.0197999983
916,0.0
1,CALGARY INTL AP ANN CLG .4% CONDNS WB=>MDB HVAC Sizing Pass 1,  51.11,-114.02,  -7.00,1084.10
2,1, 7,21, 0, 1, 0.00,10.00,SummerDesignDay
8,1291806.0197999983
916,0.0
2,1, 7,21, 0, 1,10.00,20.00,SummerDesignDay
8,1291806.0197999983
916,0.0
2,1, 7,21, 0, 1,20.00,30.00,SummerDesignDay
8,1291806.0197999983
916,0.0
2,1, 7,21, 0, 1,30.00,40.00,SummerDesignDay
8,1291806.0197999983
916,0.0
2,1, 7,21, 0, 1,40.00,50.00,SummerDesignDay
8,1291806.0197999983
916,0.0
2,1, 7,21, 0, 1,50.00,60.00,SummerDesignDay
8,1291806.0197999983
916,0.0
2,1, 7,21, 0, 2, 0.00,10.00,SummerDesignDay
8,1291806.0197999983
916,0.0
2,1, 7,21, 0, 2,10.00,20.00,SummerDesignDay
8,1291806.0197999983
916,0.0
2,1, 7,21, 0, 2,20.00,30.00,SummerDesignDay
8,1291806.0197999983
916,0.0
2,1, 7,21, 0, 2,30.00,40.00,SummerDesignDay
8,1291806.0197999983
916,0.0
2,1, 7,21, 0, 2,40.00,50.00,SummerDesignDay
8,1291806.0197999983
916,0.0
2,1, 7,21, 0, 2,50.00,60.00,SummerDesignDay
8,1291806.0197999983
916,0.0
2,1, 7,21, 0, 3, 0.00,10.00,SummerDesignDay
8,1291806.0197999983
916,0.0
2,1, 7,21, 0, 3,10.00,20.00,SummerDesignDay
8,1291806.0197999983
916,0.0
2,1, 7,21, 0, 3,20.00,30.00,SummerDesignDay
8,1291806.0197999983
916,0.0
2,1, 7,21, 0, 3,30.00,40.00,SummerDesignDay
8,1291806.0197999983
916,0.0
2,1, 7,21, 0, 3,40.00,50.00,SummerDesignDay
8,1291806.0197999983
916,0.0
2,1, 7,21, 0, 3,50.00,60.00,SummerDesignDay
8,1291806.0197999983
916,0.0
2,1, 7,21, 0, 4, 0.00,10.00,SummerDesignDay
8,1291806.0197999983
916,0.0
2,1, 7,21, 0, 4,10.00,20.00,SummerDesignDay
8,1291806.0197999983
916,0.0
2,1, 7,21, 0, 4,20.00,30.00,SummerDesignDay
8,1291806.0197999983
916,0.0
2,1, 7,21, 0, 4,30.00,40.00,SummerDesignDay
8,1291806.0197999983
916,0.0
2,1, 7,21, 0, 4,40.00,50.00,SummerDesignDay
8,1291806.0197999983
916,0.0
2,1, 7,21, 0, 4,50.00,60.00,SummerDesignDay
8,1291806.0197999983
916,0.0
2,1, 7,21, 0, 5, 0.00,10.00,SummerDesignDay
8,1291806.0197999983
916,0.0
2,1, 7,21, 0, 5,10.00,20.00,SummerDesignDay
8,1291806.0197999983
916,0.0
2,1, 7,21, 0, 5,20.00,30.00,SummerDesignDay
8,1291806.0197999983
916,0.0
2,1, 7,21, 0, 5,30.00,40.00,SummerDesignDay
8,1291806.0197999983
916,0.0
2,1, 7,21, 0, 5,40.00,50.00,SummerDesignDay
8,1291806.0197999983
916,0.0
2,1, 7,21, 0, 5,50.00,60.00,SummerDesignDay
8,1291806.0197999983
916,0.0
2,1, 7,21, 0, 6, 0.00,10.00,SummerDesignDay
8,1291806.0197999983
916,0.0
2,1, 7,21, 0, 6,10.00,20.00,SummerDesignDay
8,1291806.0197999983
916,0.0
2,1, 7,21, 0, 6,20.00,30.00,SummerDesignDay
8,1291806.0197999983
916,0.0
2,1, 7,21, 0, 6,30.00,40.00,SummerDesignDay
8,1291806.0197999983
916,0.0
2,1, 7,21, 0, 6,40.00,50.00,SummerDesignDay
8,1291806.0197999983
916,0.0
2,1, 7,21, 0, 6,50.00,60.00,SummerDesignDay
8,1291806.0197999983
916,0.0
2,1, 7,21, 0, 7, 0.00,10.00,SummerDesignDay
8,1291806.0197999983
916,0.0
2,1, 7,21, 0, 7,10.00,20.00,SummerDesignDay
8,1291806.0197999983
916,0.0
2,1, 7,21, 0, 7,20.00,30.00,SummerDesignDay
8,1291806.0197999983
916,0.0
2,1, 7,21, 0, 7,30.00,40.00,SummerDesignDay
8,1291806.0197999983
916,0.0
2,1, 7,21, 0, 7,40.00,50.00,SummerDesignDay
8,1291806.0197999983
916,0.0
2,1, 7,21, 0, 7,50.00,60.00,SummerDesignDay
8,1291806.0197999983
916,0.0
2,1, 7,21, 0, 8, 0.00,10.00,SummerDesignDay
8,1291806.0197999983
916,0.0
2,1, 7,21, 0, 8,10.00,20.00,SummerDesignDay
8,1291806.0197999983
916,0.0
2,1, 7,21, 0, 8,20.00,30.00,SummerDesignDay
8,1291806.0197999983
916,0.0
2,1, 7,21, 0, 8,30.00,40.00,SummerDesignDay
8,1291806.0197999983
916,0.0
2,1, 7,21, 0, 8,40.00,50.00,SummerDesignDay
8,1291806.0197999983
916,0.0
2,1, 7,21, 0, 8,50.00,60.00,SummerDesignDay
8,1291806.0197999983
916,0.0
2,1, 7,21, 0, 9, 0.00,10.00,SummerDesignDay
8,12918060.197999982
916,0.0
2,1, 7,21, 0, 9,10.00,20.00,SummerDesignDay
8,12918060.197999982
916,0.0
2,1, 7,21, 0, 9,20.00,30.00,SummerDesignDay
8,12918060.197999982
916,0.0
2,1, 7,21, 0, 9,30.00,40.00,SummerDesignDay
8,12918060.197999982
916,0.0
2,1, 7,21, 0, 9,40.00,50.00,SummerDesignDay
8,12918060.197999982
916,0.0
2,1, 7,21, 0, 9,50.00,60.00,SummerDesignDay
8,12918060.197999982
916,0.0
2,1, 7,21, 0,10, 0.00,10.00,SummerDesignDay
8,23252508.356399987
916,0.0
2,1, 7,21, 0,10,10.00,20.00,SummerDesignDay
8,23252508.356399987
916,0.0
2,1, 7,21, 0,10,20.00,30.00,SummerDesignDay
8,23252508.356399987
916,0.0
2,1, 7,21, 0,10,30.00,40.00,SummerDesignDay
8,23252508.356399987
916,0.0
2,1, 7,21, 0,10,40.00,50.00,SummerDesignDay
8,23252508.356399987
916,0.0
2,1, 7,21, 0,10,50.00,60.00,SummerDesignDay
8,23252508.356399987
916,0.0
2,1, 7,21, 0,11, 0.00,10.00,SummerDesignDay
8,23252508.356399987
916,0.0
2,1, 7,21, 0,11,10.00,20.00,SummerDesignDay
8,23252508.356399987
916,0.0
2,1, 7,21, 0,11,20.00,30.00,SummerDesignDay
8,23252508.356399987
916,1065009.0217935478
2,1, 7,21, 0,11,30.00,40.00,SummerDesignDay
8,23252508.356399987
916,9266383.64468765
2,1, 7,21, 0,11,40.00,50.00,SummerDesignDay
8,23252508.356399987
916,9770024.565023439
2,1, 7,21, 0,11,50.00,60.00,SummerDesignDay
8,23252508.356399987
916,12533914.73703283
2,1, 7,21, 0,12, 0.00,10.00,SummerDesignDay
8,23252508.356399987
916,22881570.403717287
2,1, 7,21, 0,12,10.00,20.00,SummerDesignDay
8,23252508.356399987
916,26643294.395822823
2,1, 7,21, 0,12,20.00,30.00,SummerDesignDay
8,23252508.356399987
916,29379987.645107318
2,1, 7,21, 0,12,30.00,40.00,SummerDesignDay
8,23252508.356399987
916,31814062.589544453
2,1, 7,21, 0,12,40.00,50.00,SummerDesignDay
8,23252508.356399987
916,33970173.81082516
2,1, 7,21, 0,12,50.00,60.00,SummerDesignDay
8,23252508.356399987
916,35901727.26268882
2,1, 7,21, 0,13, 0.00,10.00,SummerDesignDay
8,23252508.356399987
916,44168602.11429273
2,1, 7,21, 0,13,10.00,20.00,SummerDesignDay
8,23252508.356399987
916,46560176.20963043
2,1, 7,21, 0,13,20.00,30.00,SummerDesignDay
8,23252508.356399987
916,48338138.905482
2,1, 7,21, 0,13,30.00,40.00,SummerDesignDay
8,23252508.356399987
916,49903348.56463906
2,1, 7,21, 0,13,40.00,50.00,SummerDesignDay
8,23252508.356399987
916,51288865.77890204
2,1, 7,21, 0,13,50.00,60.00,SummerDesignDay
8,23252508.356399987
916,52532804.85217607
2,1, 7,21, 0,14, 0.00,10.00,SummerDesignDay
8,23252508.356399987
916,56182823.341664396
2,1, 7,21, 0,14,10.00,20.00,SummerDesignDay
8,23252508.356399987
916,57329644.67749775
2,1, 7,21, 0,14,20.00,30.00,SummerDesignDay
8,23252508.356399987
916,58193778.16175706
2,1, 7,21, 0,14,30.00,40.00,SummerDesignDay
8,23252508.356399987
916,58938203.504451156
2,1, 7,21, 0,14,40.00,50.00,SummerDesignDay
8,23252508.356399987
916,59586948.45527073
2,1, 7,21, 0,14,50.00,60.00,SummerDesignDay
8,23252508.356399987
916,60155887.04467242
2,1, 7,21, 0,15, 0.00,10.00,SummerDesignDay
8,23252508.356399987
916,60265089.52490829
2,1, 7,21, 0,15,10.00,20.00,SummerDesignDay
8,23252508.356399987
916,60217930.3127456
2,1, 7,21, 0,15,20.00,30.00,SummerDesignDay
8,23252508.356399987
916,60111843.99172398
2,1, 7,21, 0,15,30.00,40.00,SummerDesignDay
8,23252508.356399987
916,59958342.7926328
2,1, 7,21, 0,15,40.00,50.00,SummerDesignDay
8,23252508.356399987
916,59762145.18966967
2,1, 7,21, 0,15,50.00,60.00,SummerDesignDay
8,23252508.356399987
916,59526949.318905465
2,1, 7,21, 0,16, 0.00,10.00,SummerDesignDay
8,23252508.356399987
916,56722663.96709356
2,1, 7,21, 0,16,10.00,20.00,SummerDesignDay
8,23252508.356399987
916,55528287.37789226
2,1, 7,21, 0,16,20.00,30.00,SummerDesignDay
8,23252508.356399987
916,54437255.56631009
2,1, 7,21, 0,16,30.00,40.00,SummerDesignDay
8,23252508.356399987
916,53348077.69557571
2,1, 7,21, 0,16,40.00,50.00,SummerDesignDay
8,23252508.356399987
916,52257283.39033709
2,1, 7,21, 0,16,50.00,60.00,SummerDesignDay
8,23252508.356399987
916,51160263.37861666
2,1, 7,21, 0,17, 0.00,10.00,SummerDesignDay
8,23252508.356399987
916,47107597.92044292
2,1, 7,21, 0,17,10.00,20.00,SummerDesignDay
8,23252508.356399987
916,45353338.60607571
2,1, 7,21, 0,17,20.00,30.00,SummerDesignDay
8,23252508.356399987
916,43809204.208128355
2,1, 7,21, 0,17,30.00,40.00,SummerDesignDay
8,23252508.356399987
916,42318168.729984276
2,1, 7,21, 0,17,40.00,50.00,SummerDesignDay
8,23252508.356399987
916,40876531.93554291
2,1, 7,21, 0,17,50.00,60.00,SummerDesignDay
8,23252508.356399987
916,39481449.43864955
2,1, 7,21, 0,18, 0.00,10.00,SummerDesignDay
8,23252508.356399987
916,34638410.93661055
2,1, 7,21, 0,18,10.00,20.00,SummerDesignDay
8,23252508.356399987
916,32690985.06865079
2,1, 7,21, 0,18,20.00,30.00,SummerDesignDay
8,23252508.356399987
916,31023651.51266096
2,1, 7,21, 0,18,30.00,40.00,SummerDesignDay
8,23252508.356399987
916,29501748.641413346
2,1, 7,21, 0,18,40.00,50.00,SummerDesignDay
8,23252508.356399987
916,28065415.755175132
2,1, 7,21, 0,18,50.00,60.00,SummerDesignDay
8,23252508.356399987
916,26643729.45102039
2,1, 7,21, 0,19, 0.00,10.00,SummerDesignDay
8,23252508.356399987
916,22124873.37132107
2,1, 7,21, 0,19,10.00,20.00,SummerDesignDay
8,23252508.356399987
916,19949745.514022548
2,1, 7,21, 0,19,20.00,30.00,SummerDesignDay
8,23252508.356399987
916,17947394.510807887
2,1, 7,21, 0,19,30.00,40.00,SummerDesignDay
8,23252508.356399987
916,15994553.100425785
2,1, 7,21, 0,19,40.00,50.00,SummerDesignDay
8,23252508.356399987
916,14080365.522078585
2,1, 7,21, 0,19,50.00,60.00,SummerDesignDay
8,23252508.356399987
916,12194623.92041317
2,1, 7,21, 0,20, 0.00,10.00,SummerDesignDay
8,15501672.237599976
916,3473181.770415437
2,1, 7,21, 0,20,10.00,20.00,SummerDesignDay
8,15501672.237599976
916,1473850.1722046018
2,1, 7,21, 0,20,20.00,30.00,SummerDesignDay
8,15501672.237599976
916,50943.8607565524
2,1, 7,21, 0,20,30.00,40.00,SummerDesignDay
8,15501672.237599976
916,0.0
2,1, 7,21, 0,20,40.00,50.00,SummerDesignDay
8,15501672.237599976
916,0.0
2,1, 7,21, 0,20,50.00,60.00,SummerDesignDay
8,15501672.237599976
916,0.0
2,1, 7,21, 0,21, 0.00,10.00,SummerDesignDay
8,12918060.197999982
916,0.0
2,1, 7,21, 0,21,10.00,20.00,SummerDesignDay
8,12918060.197999982
916,0.0
2,1, 7,21, 0,21,20.00,30.00,SummerDesignDay
8,12918060.197999982
916,0.0
2,1, 7,21, 0,21,30.00,40.00,SummerDesignDay
8,12918060.197999982
916,0.0
2,1, 7,21, 0,21,40.00,50.00,SummerDesignDay
8,12918060.197999982
916,0.0
2,1, 7,21, 0,21,50.00,60.00,SummerDesignDay
8,12918060.197999982
916,0.0
2,1, 7,21, 0,22, 0.00,10.00,SummerDesignDay
8,1291806.0197999983
916,0.0
2,1, 7,21, 0,22,10.00,20.00,SummerDesignDay
8,1291806.0197999983
916,0.0
2,1, 7,21, 0,22,20.00,30.00,SummerDesignDay
8,1291806.0197999983
916,0.0
2,1, 7,21, 0,22,30.00,40.00,SummerDesignDay
8,1291806.0197999983
916,0.0
2,1, 7,21, 0,22,40.00,50.00,SummerDesignDay
8,1291806.0197999983
916,0.0
2,1, 7,21, 0,22,50.00,60.00,SummerDesignDay
8,1291806.0197999983
916,0.0
2,1, 7,21, 0,23, 0.00,10.00,SummerDesignDay
8,1291806.0197999983
916,0.0
2,1, 7,21, 0,23,10.00,20.00,SummerDesignDay
8,1291806.0197999983
916,0.0
2,1, 7,21, 0,23,20.00,30.00,SummerDesignDay
8,1291806.0197999983
916,0.0
2,1, 7,21, 0,23,30.00,40.00,SummerDesignDay
8,1291806.0197999983
916,0.0
2,1, 7,21, 0,23,40.00,50.00,SummerDesignDay
8,1291806.0197999983
916,0.0
2,1, 7,21, 0,23,50.00,60.00,SummerDesignDay
8,1291806.0197999983
916,0.0
2,1, 7,21, 0,24, 0.00,10.00,SummerDesignDay
8,1291806.0197999983
916,0.0
2,1, 7,21, 0,24,10.00,20.00,SummerDesignDay
8,1291806.0197999983
916,0.0
2,1, 7,21, 0,24,20.00,30.00,SummerDesignDay
8,1291806.0197999983
916,0.0
2,1, 7,21, 0,24,30.00,40.00,SummerDesignDay
8,1291806.0197999983
916,0.0
2,1, 7,21, 0,24,40.00,50.00,SummerDesignDay
8,1291806.0197999983
916,0.0
2,1, 7,21, 0,24,50.00,60.00,SummerDesignDay
8,1291806.0197999983
916,0.0
1,CALGARY INTL AP ANN HTG 99.6% CONDNS DB HVAC Sizing Pass 1,  51.11,-114.02,  -7.00,1084.10
2,1, 1,21, 0, 1, 0.00,10.00,WinterDesignDay
8,1291806.0197999983
916,0.0
2,1, 1,21, 0, 1,10.00,20.00,WinterDesignDay
8,1291806.0197999983
916,0.0
2,1, 1,21, 0, 1,20.00,30.00,WinterDesignDay
8,1291806.0197999983
916,0.0
2,1, 1,21, 0, 1,30.00,40.00,WinterDesignDay
8,1291806.0197999983
916,0.0
2,1, 1,21, 0, 1,40.00,50.00,WinterDesignDay
8,1291806.0197999983
916,0.0
2,1, 1,21, 0, 1,50.00,60.00,WinterDesignDay
8,1291806.0197999983
916,0.0
2,1, 1,21, 0, 2, 0.00,10.00,WinterDesignDay
8,1291806.0197999983
916,0.0
2,1, 1,21, 0, 2,10.00,20.00,WinterDesignDay
8,1291806.0197999983
916,0.0
2,1, 1,21, 0, 2,20.00,30.00,WinterDesignDay
8,1291806.0197999983
916,0.0
2,1, 1,21, 0, 2,30.00,40.00,WinterDesignDay
8,1291806.0197999983
916,0.0
2,1, 1,21, 0, 2,40.00,50.00,WinterDesignDay
8,1291806.0197999983
916,0.0
2,1, 1,21, 0, 2,50.00,60.00,WinterDesignDay
8,1291806.0197999983
916,0.0
2,1, 1,21, 0, 3, 0.00,10.00,WinterDesignDay
8,1291806.0197999983
916,0.0
2,1, 1,21, 0, 3,10.00,20.00,WinterDesignDay
8,1291806.0197999983
916,0.0
2,1, 1,21, 0, 3,20.00,30.00,WinterDesignDay
8,1291806.0197999983
916,0.0
2,1, 1,21, 0, 3,30.00,40.00,WinterDesignDay
8,1291806.0197999983
916,0.0
2,1, 1,21, 0, 3,40.00,50.00,WinterDesignDay
8,1291806.0197999983
916,0.0
2,1, 1,21, 0, 3,50.00,60.00,WinterDesignDay
8,1291806.0197999983
916,0.0
2,1, 1,21, 0, 4, 0.00,10.00,WinterDesignDay
8,1291806.0197999983
916,0.0
2,1, 1,21, 0, 4,10.00,20.00,WinterDesignDay
8,1291806.0197999983
916,0.0
2,1, 1,21, 0, 4,20.00,30.00,WinterDesignDay
8,1291806.0197999983
916,0.0
2,1, 1,21, 0, 4,30.00,40.00,WinterDesignDay
8,1291806.0197999983
916,0.0
2,1, 1,21, 0, 4,40.00,50.00,WinterDesignDay
8,1291806.0197999983
916,0.0
2,1, 1,21, 0, 4,50.00,60.00,WinterDesignDay
8,1291806.0197999983
916,0.0
2,1, 1,21, 0, 5, 0.00,10.00,WinterDesignDay
8,1291806.0197999983
916,0.0
2,1, 1,21, 0, 5,10.00,20.00,WinterDesignDay
8,1291806.0197999983
916,0.0
2,1, 1,21, 0, 5,20.00,30.00,WinterDesignDay
8,1291806.0197999983
916,0.0
2,1, 1,21, 0, 5,30.00,40.00,WinterDesignDay
8,1291806.0197999983
916,0.0
2,1, 1,21, 0, 5,40.00,50.00,WinterDesignDay
8,1291806.0197999983
916,0.0
2,1, 1,21, 0, 5,50.00,60.00,WinterDesignDay
8,1291806.0197999983
916,0.0
2,1, 1,21, 0, 6, 0.00,10.00,WinterDesignDay
8,1291806.0197999983
916,0.0
2,1, 1,21, 0, 6,10.00,20.00,WinterDesignDay
8,1291806.0197999983
916,0.0
2,1, 1,21, 0, 6,20.00,30.00,WinterDesignDay
8,1291806.0197999983
916,0.0
2,1, 1,21, 0, 6,30.00,40.00,WinterDesignDay
8,1291806.0197999983
916,0.0
2,1, 1,21, 0, 6,40.00,50.00,WinterDesignDay
8,1291806.0197999983
916,0.0
2,1, 1,21, 0, 6,50.00,60.00,WinterDesignDay
8,1291806.0197999983
916,0.0
2,1, 1,21, 0, 7, 0.00,10.00,WinterDesignDay
8,1291806.0197999983
916,0.0
2,1, 1,21, 0, 7,10.00,20.00,WinterDesignDay
8,1291806.0197999983
916,0.0
2,1, 1,21, 0, 7,20.00,30.00,WinterDesignDay
8,1291806.0197999983
916,0.0
2,1, 1,21, 0, 7,30.00,40.00,WinterDesignDay
8,1291806.0197999983
916,0.0
2,1, 1,21, 0, 7,40.00,50.00,WinterDesignDay
8,1291806.0197999983
916,0.0
2,1, 1,21, 0, 7,50.00,60.00,WinterDesignDay
8,1291806.0197999983
916,0.0
2,1, 1,21, 0, 8, 0.00,10.00,WinterDesignDay
8,1291806.0197999983
916,0.0
2,1, 1,21, 0, 8,10.00,20.00,WinterDesignDay
8,1291806.0197999983
916,0.0
2,1, 1,21, 0, 8,20.00,30.00,WinterDesignDay
8,1291806.0197999983
916,0.0
2,1, 1,21, 0, 8,30.00,40.00,WinterDesignDay
8,1291806.0197999983
916,0.0
2,1, 1,21, 0, 8,40.00,50.00,WinterDesignDay
8,1291806.0197999983
916,0.0
2,1, 1,21, 0, 8,50.00,60.00,WinterDesignDay
8,1291806.0197999983
916,0.0
2,1, 1,21, 0, 9, 0.00,10.00,WinterDesignDay
8,12918060.197999982
916,0.0
2,1, 1,21, 0, 9,10.00,20.00,WinterDesignDay
8,12918060.197999982
916,0.0
2,1, 1,21, 0, 9,20.00,30.00,WinterDesignDay
8,12918060.197999982
916,0.0
2,1, 1,21, 0, 9,30.00,40.00,WinterDesignDay
8,12918060.197999982
916,0.0
2,1, 1,21, 0, 9,40.00,50.00,WinterDesignDay
8,12918060.197999982
916,0.0
2,1, 1,21, 0, 9,50.00,60.00,WinterDesignDay
8,12918060.197999982
916,0.0
2,1, 1,21, 0,10, 0.00,10.00,WinterDesignDay
8,23252508.356399987
916,0.0
2,1, 1,21, 0,10,10.00,20.00,WinterDesignDay
8,23252508.356399987
916,0.0
2,1, 1,21, 0,10,20.00,30.00,WinterDesignDay
8,23252508.356399987
916,0.0
2,1, 1,21, 0,10,30.00,40.00,WinterDesignDay
8,23252508.356399987
916,0.0
2,1, 1,21, 0,10,40.00,50.00,WinterDesignDay
8,23252508.356399987
916,0.0
2,1, 1,21, 0,10,50.00,60.00,WinterDesignDay
8,23252508.356399987
916,0.0
2,1, 1,21, 0,11, 0.00,10.00,WinterDesignDay
8,23252508.356399987
916,0.0
2,1, 1,21, 0,11,10.00,20.00,WinterDesignDay
8,23252508.356399987
916,0.0
2,1, 1,21, 0,11,20.00,30.00,WinterDesignDay
8,23252508.356399987
916,0.0
2,1, 1,21, 0,11,30.00,40.00,WinterDesignDay
8,23252508.356399987
916,0.0
2,1, 1,21, 0,11,40.00,50.00,WinterDesignDay
8,23252508.356399987
916,0.0
2,1, 1,21, 0,11,50.00,60.00,WinterDesignDay
8,23252508.356399987
916,0.0
2,1, 1,21, 0,12, 0.00,10.00,WinterDesignDay
8,23252508.356399987
916,0.0
2,1, 1,21, 0,12,10.00,20.00,WinterDesignDay
8,23252508.356399987
916,0.0
2,1, 1,21, 0,12,20.00,30.00,WinterDesignDay
8,23252508.356399987
916,0.0
2,1, 1,21, 0,12,30.00,40.00,WinterDesignDay
8,23252508.356399987
916,0.0
2,1, 1,21, 0,12,40.00,50.00,WinterDesignDay
8,23252508.356399987
916,0.0
2,1, 1,21, 0,12,50.00,60.00,WinterDesignDay
8,23252508.356399987
916,0.0
2,1, 1,21, 0,13, 0.00,10.00,WinterDesignDay
8,23252508.356399987
916,0.0
2,1, 1,21, 0,13,10.00,20.00,WinterDesignDay
8,23252508.356399987
916,0.0
2,1, 1,21, 0,13,20.00,30.00,WinterDesignDay
8,23252508.356399987
916,0.0
2,1, 1,21, 0,13,30.00,40.00,WinterDesignDay
8,23252508.356399987
916,0.0
2,1, 1,21, 0,13,40.00,50.00,WinterDesignDay
8,23252508.356399987
916,0.0
2,1, 1,21, 0,13,50.00,60.00,WinterDesignDay
8,23252508.356399987
916,0.0
2,1, 1,21, 0,14, 0.00,10.00,WinterDesignDay
8,23252508.356399987
916,0.0
2,1, 1,21, 0,14,10.00,20.00,WinterDesignDay
8,23252508.356399987
916,0.0
2,1, 1,21, 0,14,20.00,30.00,WinterDesignDay
8,23252508.356399987
916,0.0
2,1, 1,21, 0,14,30.00,40.00,WinterDesignDay
8,23252508.356399987
916,0.0
2,1, 1,21, 0,14,40.00,50.00,WinterDesignDay
8,23252508.356399987
916,0.0
2,1, 1,21, 0,14,50.00,60.00,WinterDesignDay
8,23252508.356399987
916,0.0