Program Version,EnergyPlus, Version 23.2.0-7636e6b3e9, YMD=2025.01.14 17:13
1,5,Environment Title[],Latitude[deg],Longitude[deg],Time Zone[],Elevation[m]
2,8,Day of Simulation[],Month[],Day of Month[],DST Indicator[1=yes 0=no],Hour[],StartMinute[],EndMinute[],DayType
3,5,Cumulative Day of Simulation[],Month[],Day of Month[],DST Indicator[1=yes 0=no],DayType  ! When Daily Report Variables Requested
4,2,Cumulative Days of Simulation[],Month[]  ! When Monthly Report Variables Requested
5,1,Cumulative Days of Simulation[] ! When Run Period Report Variables Requested
6,1,Calendar Year of Simulation[] ! When Annual Report Variables Requested
8,1,Electricity:Facility [J] !TimeStep
End of Data Dictionary
1,RUN PERIOD 1,  48.52, -72.27,  -5.00, 178.60
2,1, 1, 1, 0, 1, 0.00,10.00,Wednesday
8,27912845.95517581
2,1, 1, 1, 0, 1,10.00,20.00,Wednesday
8,27915149.683742624
2,1, 1, 1, 0, 1,20.00,30.00,Wednesday
8,27418542.085373286
2,1, 1, 1, 0, 1,30.00,40.00,Wednesday
8,27111294.055103
2,1, 1, 1, 0, 1,40.00,50.00,Wednesday
8,26139928.354263693
2,1, 1, 1, 0, 1,50.00,60.00,Wednesday
8,24893561.504869472
2,1, 1, 1, 0, 2, 0.00,10.00,Wednesday
8,26396141.747983083
2,1, 1, 1, 0, 2,10.00,20.00,Wednesday
8,27219696.48378572
2,1, 1, 1, 0, 2,20.00,30.00,Wednesday
8,27597417.144122526
2,1, 1, 1, 0, 2,30.00,40.00,Wednesday
8,27642461.147246305
2,1, 1, 1, 0, 2,40.00,50.00,Wednesday
8,27936226.822415136
2,1, 1, 1, 0, 2,50.00,60.00,Wednesday
8,28425126.86382197
2,1, 1, 1, 0, 3, 0.00,10.00,Wednesday
8,28304163.557307016
2,1, 1, 1, 0, 3,10.00,20.00,Wednesday
8,27344980.77898252
2,1, 1, 1, 0, 3,20.00,30.00,Wednesday
8,26654893.029861204
2,1, 1, 1, 0, 3,30.00,40.00,Wednesday
8,26135429.167714763
2,1, 1, 1, 0, 3,40.00,50.00,Wednesday
8,25613023.715453688
2,1, 1, 1, 0, 3,50.00,60.00,Wednesday
8,24543131.75535506
2,1, 1, 1, 0, 4, 0.00,10.00,Wednesday
8,24762579.905878432
2,1, 1, 1, 0, 4,10.00,20.00,Wednesday
8,24974575.165738888
2,1, 1, 1, 0, 4,20.00,30.00,Wednesday
8,25247717.717312448
2,1, 1, 1, 0, 4,30.00,40.00,Wednesday
8,24869307.868006516
2,1, 1, 1, 0, 4,40.00,50.00,Wednesday
8,24885712.41816061
2,1, 1, 1, 0, 4,50.00,60.00,Wednesday
8,25033410.81379274
2,1, 1, 1, 0, 5, 0.00,10.00,Wednesday
8,24377118.44385723
2,1, 1, 1, 0, 5,10.00,20.00,Wednesday
8,22949721.337238148
2,1, 1, 1, 0, 5,20.00,30.00,Wednesday
8,21914128.87724211
2,1, 1, 1, 0, 5,30.00,40.00,Wednesday
8,21020331.77649257
2,1, 1, 1, 0, 5,40.00,50.00,Wednesday
8,20311500.74160751
2,1, 1, 1, 0, 5,50.00,60.00,Wednesday
8,18862659.944841072
2,1, 1, 1, 0, 6, 0.00,10.00,Wednesday
8,18929414.151714306
2,1, 1, 1, 0, 6,10.00,20.00,Wednesday
8,19064284.790224142
2,1, 1, 1, 0, 6,20.00,30.00,Wednesday
8,19404905.062588606
2,1, 1, 1, 0, 6,30.00,40.00,Wednesday
8,18972581.893717736
2,1, 1, 1, 0, 6,40.00,50.00,Wednesday
8,18980390.47162375
2,1, 1, 1, 0, 6,50.00,60.00,Wednesday
8,19093248.12530659
2,1, 1, 1, 0, 7, 0.00,10.00,Wednesday
8,21062503.478530925
2,1, 1, 1, 0, 7,10.00,20.00,Wednesday
8,22199080.68756587
2,1, 1, 1, 0, 7,20.00,30.00,Wednesday
8,23785363.76281379
2,1, 1, 1, 0, 7,30.00,40.00,Wednesday
8,25501215.103317745
2,1, 1, 1, 0, 7,40.00,50.00,Wednesday
8,27448809.26406985
2,1, 1, 1, 0, 7,50.00,60.00,Wednesday
8,28594461.661529932
2,1, 1, 1, 0, 8, 0.00,10.00,Wednesday
8,83361729.32457049
2,1, 1, 1, 0, 8,10.00,20.00,Wednesday
8,49104215.79054909
2,1, 1, 1, 0, 8,20.00,30.00,Wednesday
8,50033056.883613706
2,1, 1, 1, 0, 8,30.00,40.00,Wednesday
8,42037871.64258107
2,1, 1, 1, 0, 8,40.00,50.00,Wednesday
8,37815837.0338935
2,1, 1, 1, 0, 8,50.00,60.00,Wednesday
8,35055226.56615134
2,1, 1, 1, 0, 9, 0.00,10.00,Wednesday
8,84190992.65498032
2,1, 1, 1, 0, 9,10.00,20.00,Wednesday
8,65782008.7284153
2,1, 1, 1, 0, 9,20.00,30.00,Wednesday
8,47818773.14668269
2,1, 1, 1, 0, 9,30.00,40.00,Wednesday
8,55341975.44313862
2,1, 1, 1, 0, 9,40.00,50.00,Wednesday
8,52588601.76013319
2,1, 1, 1, 0, 9,50.00,60.00,Wednesday
8,52603843.15833365
2,1, 1, 1, 0,10, 0.00,10.00,Wednesday
8,116357997.16880645
2,1, 1, 1, 0,10,10.00,20.00,Wednesday
8,114310065.42426853
2,1, 1, 1, 0,10,20.00,30.00,Wednesday
8,113369348.05670044
2,1, 1, 1, 0,10,30.00,40.00,Wednesday
8,112777692.35278599
2,1, 1, 1, 0,10,40.00,50.00,Wednesday
8,112655305.07159318
2,1, 1, 1, 0,10,50.00,60.00,Wednesday
8,112801580.50025499
2,1, 1, 1, 0,11, 0.00,10.00,Wednesday
8,109819819.89439018
2,1, 1, 1, 0,11,10.00,20.00,Wednesday
8,109520655.85933559
2,1, 1, 1, 0,11,20.00,30.00,Wednesday
8,109535796.19142526
2,1, 1, 1, 0,11,30.00,40.00,Wednesday
8,109434374.59790096
2,1, 1, 1, 0,11,40.00,50.00,Wednesday
8,109346234.83660038
2,1, 1, 1, 0,11,50.00,60.00,Wednesday
8,109367749.0063837
2,1, 1, 1, 0,12, 0.00,10.00,Wednesday
8,108429016.01008593
2,1, 1, 1, 0,12,10.00,20.00,Wednesday
8,107898626.72341692
2,1, 1, 1, 0,12,20.00,30.00,Wednesday
8,107304744.15097098
2,1, 1, 1, 0,12,30.00,40.00,Wednesday
8,106893602.76147678
2,1, 1, 1, 0,12,40.00,50.00,Wednesday
8,106548162.59052597
2,1, 1, 1, 0,12,50.00,60.00,Wednesday
8,106220342.19777435
2,1, 1, 1, 0,13, 0.00,10.00,Wednesday
8,107120743.52103373
2,1, 1, 1, 0,13,10.00,20.00,Wednesday
8,107657998.32301228
2,1, 1, 1, 0,13,20.00,30.00,Wednesday
8,108437682.84479408
2,1, 1, 1, 0,13,30.00,40.00,Wednesday
8,108987888.89662705
2,1, 1, 1, 0,13,40.00,50.00,Wednesday
8,109569544.21325856
2,1, 1, 1, 0,13,50.00,60.00,Wednesday
8,110144101.57967912
2,1, 1, 1, 0,14, 0.00,10.00,Wednesday
8,108860293.58121495
2,1, 1, 1, 0,14,10.00,20.00,Wednesday
8,107771787.99814087
2,1, 1, 1, 0,14,20.00,30.00,Wednesday
8,106735374.18209478
2,1, 1, 1, 0,14,30.00,40.00,Wednesday
8,105863209.01184121
2,1, 1, 1, 0,14,40.00,50.00,Wednesday
8,105052950.00519797
2,1, 1, 1, 0,14,50.00,60.00,Wednesday
8,104279270.74761488
2,1, 1, 1, 0,15, 0.00,10.00,Wednesday
8,103993723.24756384
2,1, 1, 1, 0,15,10.00,20.00,Wednesday
8,103654130.7569816
2,1, 1, 1, 0,15,20.00,30.00,Wednesday
8,103381135.59196754
2,1, 1, 1, 0,15,30.00,40.00,Wednesday
8,102850587.38188654
2,1, 1, 1, 0,15,40.00,50.00,Wednesday
8,102325219.92786895
2,1, 1, 1, 0,15,50.00,60.00,Wednesday
8,101727893.03281698
2,1, 1, 1, 0,16, 0.00,10.00,Wednesday
8,101876962.72321637
2,1, 1, 1, 0,16,10.00,20.00,Wednesday
8,101876473.33262005
2,1, 1, 1, 0,16,20.00,30.00,Wednesday
8,101941856.10436176
2,1, 1, 1, 0,16,30.00,40.00,Wednesday
8,102190409.24550433
2,1, 1, 1, 0,16,40.00,50.00,Wednesday
8,102503299.30867101
2,1, 1, 1, 0,16,50.00,60.00,Wednesday
8,103280615.72634253
2,1, 1, 1, 0,17, 0.00,10.00,Wednesday
8,103029525.44682194
2,1, 1, 1, 0,17,10.00,20.00,Wednesday
8,102482723.26832691
2,1, 1, 1, 0,17,20.00,30.00,Wednesday
8,101785851.02693602
2,1, 1, 1, 0,17,30.00,40.00,Wednesday
8,101041689.41358633
2,1, 1, 1, 0,17,40.00,50.00,Wednesday
8,100259664.93908222
2,1, 1, 1, 0,17,50.00,60.00,Wednesday
8,98877780.43676925
2,1, 1, 1, 0,18, 0.00,10.00,Wednesday
8,98108824.18592675
2,1, 1, 1, 0,18,10.00,20.00,Wednesday
8,97166595.24423195
2,1, 1, 1, 0,18,20.00,30.00,Wednesday
8,96191578.14003776
2,1, 1, 1, 0,18,30.00,40.00,Wednesday
8,95124220.02361776
2,1, 1, 1, 0,18,40.00,50.00,Wednesday
8,94043704.73060587
2,1, 1, 1, 0,18,50.00,60.00,Wednesday
8,92952302.30860645
2,1, 1, 1, 0,19, 0.00,10.00,Wednesday
8,94431426.94211486
2,1, 1, 1, 0,19,10.00,20.00,Wednesday
8,96163348.15949987
2,1, 1, 1, 0,19,20.00,30.00,Wednesday
8,97327043.51583722
2,1, 1, 1, 0,19,30.00,40.00,Wednesday
8,99080674.26376897
2,1, 1, 1, 0,19,40.00,50.00,Wednesday
8,100946181.3828153
2,1, 1, 1, 0,19,50.00,60.00,Wednesday
8,102507406.27664429
2,1, 1, 1, 0,20, 0.00,10.00,Wednesday
8,86204830.10725586
2,1, 1, 1, 0,20,10.00,20.00,Wednesday
8,85940429.51093043
2,1, 1, 1, 0,20,20.00,30.00,Wednesday
8,85856657.45455557
2,1, 1, 1, 0,20,30.00,40.00,Wednesday
8,84727775.74465562
2,1, 1, 1, 0,20,40.00,50.00,Wednesday
8,84891090.84098811
2,1, 1, 1, 0,20,50.00,60.00,Wednesday
8,84376353.2984274
2,1, 1, 1, 0,21, 0.00,10.00,Wednesday
8,87261515.42444606
2,1, 1, 1, 0,21,10.00,20.00,Wednesday
8,92894913.73062035
2,1, 1, 1, 0,21,20.00,30.00,Wednesday
8,94523556.81601122
2,1, 1, 1, 0,21,30.00,40.00,Wednesday
8,97644161.55346742
2,1, 1, 1, 0,21,40.00,50.00,Wednesday
8,101164198.79885761
2,1, 1, 1, 0,21,50.00,60.00,Wednesday
8,103607447.69431166
2,1, 1, 1, 0,22, 0.00,10.00,Wednesday
8,8372862.638789956
2,1, 1, 1, 0,22,10.00,20.00,Wednesday
8,12150788.493527627
2,1, 1, 1, 0,22,20.00,30.00,Wednesday
8,14061604.623149933
2,1, 1, 1, 0,22,30.00,40.00,Wednesday
8,16587787.77545284
2,1, 1, 1, 0,22,40.00,50.00,Wednesday
8,26121051.433528613
2,1, 1, 1, 0,22,50.00,60.00,Wednesday
8,32919293.63015969
2,1, 1, 1, 0,23, 0.00,10.00,Wednesday
8,34624501.6751774
2,1, 1, 1, 0,23,10.00,20.00,Wednesday
8,35017977.97097465
2,1, 1, 1, 0,23,20.00,30.00,Wednesday
8,34799609.42289171
2,1, 1, 1, 0,23,30.00,40.00,Wednesday
8,33224352.20036334
2,1, 1, 1, 0,23,40.00,50.00,Wednesday
8,32088004.9024145
2,1, 1, 1, 0,23,50.00,60.00,Wednesday
8,30869417.589260235
2,1, 1, 1, 0,24, 0.00,10.00,Wednesday
8,32768323.0924336
2,1, 1, 1, 0,24,10.00,20.00,Wednesday
8,31986842.784570243
2,1, 1, 1, 0,24,20.00,30.00,Wednesday
8,31421113.511164837
2,1, 1, 1, 0,24,30.00,40.00,Wednesday
8,30802152.97552404
2,1, 1, 1, 0,24,40.00,50.00,Wednesday
8,30677231.541788023
2,1, 1, 1, 0,24,50.00,60.00,Wednesday
8,29403707.939739063
2,2, 1, 2, 0, 1, 0.00,10.00,Thursday
8,29938283.2591605
2,2, 1, 2, 0, 1,10.00,20.00,Thursday
8,29756720.74299743
2,2, 1, 2, 0, 1,20.00,30.00,Thursday
8,29940497.81066426
2,2, 1, 2, 0, 1,30.00,40.00,Thursday
8,29048271.226271667
2,2, 1, 2, 0, 1,40.00,50.00,Thursday
8,28668227.12786202
2,2, 1, 2, 0, 1,50.00,60.00,Thursday
8,28317259.692980416
2,2, 1, 2, 0, 2, 0.00,10.00,Thursday
8,29051749.897074793
2,2, 1, 2, 0, 2,10.00,20.00,Thursday
8,28523241.60481371
2,2, 1, 2, 0, 2,20.00,30.00,Thursday
8,28451570.196697213
2,2, 1, 2, 0, 2,30.00,40.00,Thursday
8,28432134.92967547
2,2, 1, 2, 0, 2,40.00,50.00,Thursday
8,28762360.625091057
2,2, 1, 2, 0, 2,50.00,60.00,Thursday
8,28171148.64143676
2,2, 1, 2, 0, 3, 0.00,10.00,Thursday
8,28203698.12255768
2,2, 1, 2, 0, 3,10.00,20.00,Thursday
8,28236228.321341135
2,2, 1, 2, 0, 3,20.00,30.00,Thursday
8,28571911.6057757
2,2, 1, 2, 0, 3,30.00,40.00,Thursday
8,28033230.693072032
2,2, 1, 2, 0, 3,40.00,50.00,Thursday
8,27967160.51838913
2,2, 1, 2, 0, 3,50.00,60.00,Thursday
8,27988396.068187144
2,2, 1, 2, 0, 4, 0.00,10.00,Thursday
8,27920056.80574227
2,2, 1, 2, 0, 4,10.00,20.00,Thursday
8,26969692.89908518
2,2, 1, 2, 0, 4,20.00,30.00,Thursday
8,26469607.122432966
2,2, 1, 2, 0, 4,30.00,40.00,Thursday
8,26060604.371892523
2,2, 1, 2, 0, 4,40.00,50.00,Thursday
8,25912165.228689082
2,2, 1, 2, 0, 4,50.00,60.00,Thursday
8,24943652.193876743
2,2, 1, 2, 0, 5, 0.00,10.00,Thursday
8,25394250.55037237
2,2, 1, 2, 0, 5,10.00,20.00,Thursday
8,26065939.015266206
2,2, 1, 2, 0, 5,20.00,30.00,Thursday
8,26988368.39365882
2,2, 1, 2, 0, 5,30.00,40.00,Thursday
8,27090125.31254109
2,2, 1, 2, 0, 5,40.00,50.00,Thursday
8,27625781.773682795
2,2, 1, 2, 0, 5,50.00,60.00,Thursday
8,28247320.850100826
2,2, 1, 2, 0, 6, 0.00,10.00,Thursday
8,28813158.34546903
2,2, 1, 2, 0, 6,10.00,20.00,Thursday
8,28710755.164087355
2,2, 1, 2, 0, 6,20.00,30.00,Thursday
8,29078796.38775272
2,2, 1, 2, 0, 6,30.00,40.00,Thursday
8,29559272.87644188
2,2, 1, 2, 0, 6,40.00,50.00,Thursday
8,30270647.948454313
2,2, 1, 2, 0, 6,50.00,60.00,Thursday
8,30198656.53544644
2,2, 1, 2, 0, 7, 0.00,10.00,Thursday
8,29799484.841581117
2,2, 1, 2, 0, 7,10.00,20.00,Thursday
8,29531378.077072352
2,2, 1, 2, 0, 7,20.00,30.00,Thursday
8,29487078.111058827
2,2, 1, 2, 0, 7,30.00,40.00,Thursday
8,28663222.07855542
2,2, 1, 2, 0, 7,40.00,50.00,Thursday
8,28282038.847657252
2,2, 1, 2, 0, 7,50.00,60.00,Thursday
8,28010921.57100101
2,2, 1, 2, 0, 8, 0.00,10.00,Thursday
8,82201518.24423915
2,2, 1, 2, 0, 8,10.00,20.00,Thursday
8,21863893.682901517
2,2, 1, 2, 0, 8,20.00,30.00,Thursday
8,49917469.40662712
2,2, 1, 2, 0, 8,30.00,40.00,Thursday
8,50513921.58653636
2,2, 1, 2, 0, 8,40.00,50.00,Thursday
8,47623521.842127256
2,2, 1, 2, 0, 8,50.00,60.00,Thursday
8,47479119.63027944
2,2, 1, 2, 0, 9, 0.00,10.00,Thursday
8,95018432.501465
2,2, 1, 2, 0, 9,10.00,20.00,Thursday
8,80762717.4203428
2,2, 1, 2, 0, 9,20.00,30.00,Thursday
8,67555395.695889
2,2, 1, 2, 0, 9,30.00,40.00,Thursday
8,66295616.49161691
2,2, 1, 2, 0, 9,40.00,50.00,Thursday
8,64443205.51936602
2,2, 1, 2, 0, 9,50.00,60.00,Thursday
8,63683573.92837352
2,2, 1, 2, 0,10, 0.00,10.00,Thursday
8,104863151.77744986
2,2, 1, 2, 0,10,10.00,20.00,Thursday
8,102507079.65378027
2,2, 1, 2, 0,10,20.00,30.00,Thursday
8,101260029.89231944
2,2, 1, 2, 0,10,30.00,40.00,Thursday
8,101022746.78703947
2,2, 1, 2, 0,10,40.00,50.00,Thursday
8,100957864.88380042
2,2, 1, 2, 0,10,50.00,60.00,Thursday
8,101018679.64793192
2,2, 1, 2, 0,11, 0.00,10.00,Thursday
8,96468064.47791441
2,2, 1, 2, 0,11,10.00,20.00,Thursday
8,95132744.5731179
2,2, 1, 2, 0,11,20.00,30.00,Thursday
8,94206093.51509531
2,2, 1, 2, 0,11,30.00,40.00,Thursday
8,93544605.99328935
2,2, 1, 2, 0,11,40.00,50.00,Thursday
8,92967542.92130454
2,2, 1, 2, 0,11,50.00,60.00,Thursday
8,92650666.28690514
2,2, 1, 2, 0,12, 0.00,10.00,Thursday
8,93463892.30070871
2,2, 1, 2, 0,12,10.00,20.00,Thursday
8,94728359.37684426
2,2, 1, 2, 0,12,20.00,30.00,Thursday
8,96161927.88904576
2,2, 1, 2, 0,12,30.00,40.00,Thursday
8,97299238.68640776
2,2, 1, 2, 0,12,40.00,50.00,Thursday
8,98329511.0892953
2,2, 1, 2, 0,12,50.00,60.00,Thursday
8,99307684.74160814
2,2, 1, 2, 0,13, 0.00,10.00,Thursday
8,104088900.99481791
2,2, 1, 2, 0,13,10.00,20.00,Thursday
8,108279253.3867594
2,2, 1, 2, 0,13,20.00,30.00,Thursday
8,112646787.03118
2,2, 1, 2, 0,13,30.00,40.00,Thursday
8,117093851.93915069
2,2, 1, 2, 0,13,40.00,50.00,Thursday
8,121577180.07431795
2,2, 1, 2, 0,13,50.00,60.00,Thursday
8,126263942.1971748
2,2, 1, 2, 0,14, 0.00,10.00,Thursday
8,126277925.84008357
2,2, 1, 2, 0,14,10.00,20.00,Thursday
8,126573456.54500693
2,2, 1, 2, 0,14,20.00,30.00,Thursday
8,126864581.32687385
2,2, 1, 2, 0,14,30.00,40.00,Thursday
8,127305874.33757433
2,2, 1, 2, 0,14,40.00,50.00,Thursday
8,127773642.11715743
2,2, 1, 2, 0,14,50.00,60.00,Thursday
8,128240254.28580235
2,2, 1, 2, 0,15, 0.00,10.00,Thursday
8,127460526.42842844
2,2, 1, 2, 0,15,10.00,20.00,Thursday
8,126689564.68468839
2,2, 1, 2, 0,15,20.00,30.00,Thursday
8,125826302.6323581
2,2, 1, 2, 0,15,30.00,40.00,Thursday
8,124949379.08651666
2,2, 1, 2, 0,15,40.00,50.00,Thursday
8,124045333.33179025
2,2, 1, 2, 0,15,50.00,60.00,Thursday
8,123106831.11850663
2,2, 1, 2, 0,16, 0.00,10.00,Thursday
8,125119184.01118775
2,2, 1, 2, 0,16,10.00,20.00,Thursday
8,126767787.63424844
2,2, 1, 2, 0,16,20.00,30.00,Thursday
8,128325886.7276905
2,2, 1, 2, 0,16,30.00,40.00,Thursday
8,129782861.7764927
2,2, 1, 2, 0,16,40.00,50.00,Thursday
8,131187739.91522902
2,2, 1, 2, 0,16,50.00,60.00,Thursday
8,132607341.1032518
2,2, 1, 2, 0,17, 0.00,10.00,Thursday
8,134626455.05512127
2,2, 1, 2, 0,17,10.00,20.00,Thursday
8,136325277.27379677
2,2, 1, 2, 0,17,20.00,30.00,Thursday
8,137890645.46401882
2,2, 1, 2, 0,17,30.00,40.00,Thursday
8,139442362.2999972
2,2, 1, 2, 0,17,40.00,50.00,Thursday
8,140981930.31473944
2,2, 1, 2, 0,17,50.00,60.00,Thursday
8,141943881.03862584
2,2, 1, 2, 0,18, 0.00,10.00,Thursday
8,143494118.88941336
2,2, 1, 2, 0,18,10.00,20.00,Thursday
8,144986514.9305945
2,2, 1, 2, 0,18,20.00,30.00,Thursday
8,146328171.74090016
2,2, 1, 2, 0,18,30.00,40.00,Thursday
8,147640597.17104444
2,2, 1, 2, 0,18,40.00,50.00,Thursday
8,148947754.77617916
2,2, 1, 2, 0,18,50.00,60.00,Thursday
8,150312111.0689758
2,2, 1, 2, 0,19, 0.00,10.00,Thursday
8,147907124.79296687
2,2, 1, 2, 0,19,10.00,20.00,Thursday
8,145655382.33460402
2,2, 1, 2, 0,19,20.00,30.00,Thursday
8,142930954.00929385
2,2, 1, 2, 0,19,30.00,40.00,Thursday
8,140827348.49585447
2,2, 1, 2, 0,19,40.00,50.00,Thursday
8,138630194.79832402
2,2, 1, 2, 0,19,50.00,60.00,Thursday
8,136195407.16079372
2,2, 1, 2, 0,20, 0.00,10.00,Thursday
8,116517634.63035624
2,2, 1, 2, 0,20,10.00,20.00,Thursday
8,125510687.76528986
2,2, 1, 2, 0,20,20.00,30.00,Thursday
8,135265823.7517164
2,2, 1, 2, 0,20,30.00,40.00,Thursday
8,132065484.31694488
2,2, 1, 2, 0,20,40.00,50.00,Thursday
8,137940672.23899215
2,2, 1, 2, 0,20,50.00,60.00,Thursday
8,141578729.04317778
2,2, 1, 2, 0,21, 0.00,10.00,Thursday
8,143947488.72448778
2,2, 1, 2, 0,21,10.00,20.00,Thursday
8,147887591.04187807
2,2, 1, 2, 0,21,20.00,30.00,Thursday
8,150632423.5480832
2,2, 1, 2, 0,21,30.00,40.00,Thursday
8,153413830.1289177
2,2, 1, 2, 0,21,40.00,50.00,Thursday
8,156737083.04599178
2,2, 1, 2, 0,21,50.00,60.00,Thursday
8,159064466.27783972
2,2, 1, 2, 0,22, 0.00,10.00,Thursday
8,19788932.026116706
2,2, 1, 2, 0,22,10.00,20.00,Thursday
8,24318894.88420166
2,2, 1, 2, 0,22,20.00,30.00,Thursday
8,37784242.75925934
2,2, 1, 2, 0,22,30.00,40.00,Thursday
8,45766597.56259663
2,2, 1, 2, 0,22,40.00,50.00,Thursday
8,45898430.27669352
2,2, 1, 2, 0,22,50.00,60.00,Thursday
8,40104890.36488338
2,2, 1, 2, 0,23, 0.00,10.00,Thursday
8,45658320.686414555
2,2, 1, 2, 0,23,10.00,20.00,Thursday
8,47054263.832437634
2,2, 1, 2, 0,23,20.00,30.00,Thursday
8,48111138.08694518
2,2, 1, 2, 0,23,30.00,40.00,Thursday
8,47981075.68751262
2,2, 1, 2, 0,23,40.00,50.00,Thursday
8,48272919.43805588
2,2, 1, 2, 0,23,50.00,60.00,Thursday
8,48463166.98516618
2,2, 1, 2, 0,24, 0.00,10.00,Thursday
8,52771841.24085477
2,2, 1, 2, 0,24,10.00,20.00,Thursday
8,54183714.732668675
2,2, 1, 2, 0,24,20.00,30.00,Thursday
8,55789277.256414294
2,2, 1, 2, 0,24,30.00,40.00,Thursday
8,57349596.51042128
2,2, 1, 2, 0,24,40.00,50.00,Thursday
8,59409245.56947453
2,2, 1, 2, 0,24,50.00,60.00,Thursday
8,60327724.5124328
2,3, 1, 3, 0, 1, 0.00,10.00,Friday
8,61894761.39337329
2,3, 1, 3, 0, 1,10.00,20.00,Friday
8,62618037.749461725
2,3, 1, 3, 0, 1,20.00,30.00,Friday
8,63679954.48933715
2,3, 1, 3, 0, 1,30.00,40.00,Friday
8,63671380.96766727
2,3, 1, 3, 0, 1,40.00,50.00,Friday
8,64168373.009687535
2,3, 1, 3, 0, 1,50.00,60.00,Friday
8,64700230.54156709
2,3, 1, 3, 0, 2, 0.00,10.00,Friday
8,65354169.371146776
2,3, 1, 3, 0, 2,10.00,20.00,Friday
8,64571294.944205604
2,3, 1, 3, 0, 2,20.00,30.00,Friday
8,64196755.38132616
2,3, 1, 3, 0, 2,30.00,40.00,Friday
8,63880028.29292389
2,3, 1, 3, 0, 2,40.00,50.00,Friday
8,63857710.351979785
2,3, 1, 3, 0, 2,50.00,60.00,Friday
8,62948646.92612441
2,3, 1, 3, 0, 3, 0.00,10.00,Friday
8,62272240.57207341
2,3, 1, 3, 0, 3,10.00,20.00,Friday
8,61460891.50120743
2,3, 1, 3, 0, 3,20.00,30.00,Friday
8,60867387.24013378
2,3, 1, 3, 0, 3,30.00,40.00,Friday
8,59443308.67334267
2,3, 1, 3, 0, 3,40.00,50.00,Friday
8,58463079.313307755
2,3, 1, 3, 0, 3,50.00,60.00,Friday
8,57581103.60071146
2,3, 1, 3, 0, 4, 0.00,10.00,Friday
8,60696389.603500925
2,3, 1, 3, 0, 4,10.00,20.00,Friday
8,62921964.781424366
2,3, 1, 3, 0, 4,20.00,30.00,Friday
8,65584372.593596175
2,3, 1, 3, 0, 4,30.00,40.00,Friday
8,68373575.1681236
2,3, 1, 3, 0, 4,40.00,50.00,Friday
8,71368420.63682853
2,3, 1, 3, 0, 4,50.00,60.00,Friday
8,73619075.91565773
2,3, 1, 3, 0, 5, 0.00,10.00,Friday
8,72200107.96693699
2,3, 1, 3, 0, 5,10.00,20.00,Friday
8,70830645.01241593
2,3, 1, 3, 0, 5,20.00,30.00,Friday
8,69616701.30688994
2,3, 1, 3, 0, 5,30.00,40.00,Friday
8,67651419.84024566
2,3, 1, 3, 0, 5,40.00,50.00,Friday
8,66098579.83218738
2,3, 1, 3, 0, 5,50.00,60.00,Friday
8,64657824.00469845
2,3, 1, 3, 0, 6, 0.00,10.00,Friday
8,67308524.91286436
2,3, 1, 3, 0, 6,10.00,20.00,Friday
8,69099621.32639205
2,3, 1, 3, 0, 6,20.00,30.00,Friday
8,71264260.4111398
2,3, 1, 3, 0, 6,30.00,40.00,Friday
8,73525927.06694967
2,3, 1, 3, 0, 6,40.00,50.00,Friday
8,75909638.99780698
2,3, 1, 3, 0, 6,50.00,60.00,Friday
8,77548021.31948473
2,3, 1, 3, 0, 7, 0.00,10.00,Friday
8,79901208.0963345
2,3, 1, 3, 0, 7,10.00,20.00,Friday
8,82440191.7692297
2,3, 1, 3, 0, 7,20.00,30.00,Friday
8,85187092.17778008
2,3, 1, 3, 0, 7,30.00,40.00,Friday
8,87282500.97003351
2,3, 1, 3, 0, 7,40.00,50.00,Friday
8,89850930.1156523
2,3, 1, 3, 0, 7,50.00,60.00,Friday
8,92605569.65342106
2,3, 1, 3, 0, 8, 0.00,10.00,Friday
8,144052270.86607185
2,3, 1, 3, 0, 8,10.00,20.00,Friday
8,115484726.99318047
2,3, 1, 3, 0, 8,20.00,30.00,Friday
8,100464398.81345807
2,3, 1, 3, 0, 8,30.00,40.00,Friday
8,89444652.24086957
2,3, 1, 3, 0, 8,40.00,50.00,Friday
8,80144209.41479278
2,3, 1, 3, 0, 8,50.00,60.00,Friday
8,70864512.84309815
2,3, 1, 3, 0, 9, 0.00,10.00,Friday
8,115381580.44497003
2,3, 1, 3, 0, 9,10.00,20.00,Friday
8,115765102.70326914
2,3, 1, 3, 0, 9,20.00,30.00,Friday
8,89889564.64266668
2,3, 1, 3, 0, 9,30.00,40.00,Friday
8,104261036.21867187
2,3, 1, 3, 0, 9,40.00,50.00,Friday
8,103499172.96175477
2,3, 1, 3, 0, 9,50.00,60.00,Friday
8,106713686.76460832
2,3, 1, 3, 0,10, 0.00,10.00,Friday
8,191755457.60928208
2,3, 1, 3, 0,10,10.00,20.00,Friday
8,185510939.41795844
2,3, 1, 3, 0,10,20.00,30.00,Friday
8,180571456.31431454
2,3, 1, 3, 0,10,30.00,40.00,Friday
8,176412273.94098145
2,3, 1, 3, 0,10,40.00,50.00,Friday
8,172336539.27536884
2,3, 1, 3, 0,10,50.00,60.00,Friday
8,168515651.8609872
2,3, 1, 3, 0,11, 0.00,10.00,Friday
8,164581734.4081209
2,3, 1, 3, 0,11,10.00,20.00,Friday
8,164863170.09320518
2,3, 1, 3, 0,11,20.00,30.00,Friday
8,165616457.31850073
2,3, 1, 3, 0,11,30.00,40.00,Friday
8,166581708.1370494
2,3, 1, 3, 0,11,40.00,50.00,Friday
8,167592160.27765003
2,3, 1, 3, 0,11,50.00,60.00,Friday
8,168738059.5618815
2,3, 1, 3, 0,12, 0.00,10.00,Friday
8,163892183.4763877
2,3, 1, 3, 0,12,10.00,20.00,Friday
8,161303396.96365252
2,3, 1, 3, 0,12,20.00,30.00,Friday
8,159032464.64400813
2,3, 1, 3, 0,12,30.00,40.00,Friday
8,156931596.9645117
2,3, 1, 3, 0,12,40.00,50.00,Friday
8,154950881.64542648
2,3, 1, 3, 0,12,50.00,60.00,Friday
8,153084418.21124375
2,3, 1, 3, 0,13, 0.00,10.00,Friday
8,149423492.59540173
2,3, 1, 3, 0,13,10.00,20.00,Friday
8,145901012.5844349
2,3, 1, 3, 0,13,20.00,30.00,Friday
8,142598835.11310259
2,3, 1, 3, 0,13,30.00,40.00,Friday
8,139326046.25231975
2,3, 1, 3, 0,13,40.00,50.00,Friday
8,136084239.1323894
2,3, 1, 3, 0,13,50.00,60.00,Friday
8,132868223.90712751
2,3, 1, 3, 0,14, 0.00,10.00,Friday
8,137486018.5192407
2,3, 1, 3, 0,14,10.00,20.00,Friday
8,141571041.09321082
2,3, 1, 3, 0,14,20.00,30.00,Friday
8,145630547.6614708
2,3, 1, 3, 0,14,30.00,40.00,Friday
8,149757024.36240005
2,3, 1, 3, 0,14,40.00,50.00,Friday
8,153898721.33304402
2,3, 1, 3, 0,14,50.00,60.00,Friday
8,158039668.06138498
2,3, 1, 3, 0,15, 0.00,10.00,Friday
8,159025742.3859028
2,3, 1, 3, 0,15,10.00,20.00,Friday
8,158858556.40277934
2,3, 1, 3, 0,15,20.00,30.00,Friday
8,158669807.71052673
2,3, 1, 3, 0,15,30.00,40.00,Friday
8,158278594.47051877
2,3, 1, 3, 0,15,40.00,50.00,Friday
8,157894739.40738928
2,3, 1, 3, 0,15,50.00,60.00,Friday
8,157481762.6710318
2,3, 1, 3, 0,16, 0.00,10.00,Friday
8,156478602.73621136
2,3, 1, 3, 0,16,10.00,20.00,Friday
8,154754069.99988076
2,3, 1, 3, 0,16,20.00,30.00,Friday
8,152902500.24503025
2,3, 1, 3, 0,16,30.00,40.00,Friday
8,151105156.2024902
2,3, 1, 3, 0,16,40.00,50.00,Friday
8,149305679.84838265
2,3, 1, 3, 0,16,50.00,60.00,Friday
8,147925466.56327367
2,3, 1, 3, 0,17, 0.00,10.00,Friday
8,150156094.5165003
2,3, 1, 3, 0,17,10.00,20.00,Friday
8,151475122.06433582
2,3, 1, 3, 0,17,20.00,30.00,Friday
8,152561025.90175384
2,3, 1, 3, 0,17,30.00,40.00,Friday
8,153567522.7114034
2,3, 1, 3, 0,17,40.00,50.00,Friday
8,154502685.03950185
2,3, 1, 3, 0,17,50.00,60.00,Friday
8,154811031.23968405
2,3, 1, 3, 0,18, 0.00,10.00,Friday
8,153325288.63353947
2,3, 1, 3, 0,18,10.00,20.00,Friday
8,151367630.7703358
2,3, 1, 3, 0,18,20.00,30.00,Friday
8,149149341.04918003
2,3, 1, 3, 0,18,30.00,40.00,Friday
8,146894547.2706327
2,3, 1, 3, 0,18,40.00,50.00,Friday
8,144605076.62776682
2,3, 1, 3, 0,18,50.00,60.00,Friday
8,142288808.89074016
2,3, 1, 3, 0,19, 0.00,10.00,Friday
8,144134863.96090695
2,3, 1, 3, 0,19,10.00,20.00,Friday
8,145916110.80673772
2,3, 1, 3, 0,19,20.00,30.00,Friday
8,147357394.7457327
2,3, 1, 3, 0,19,30.00,40.00,Friday
8,149436446.63356483
2,3, 1, 3, 0,19,40.00,50.00,Friday
8,151280809.34603095
2,3, 1, 3, 0,19,50.00,60.00,Friday
8,152976297.33615658
2,3, 1, 3, 0,20, 0.00,10.00,Friday
8,131042730.2405226
2,3, 1, 3, 0,20,10.00,20.00,Friday
8,133576048.97549061
2,3, 1, 3, 0,20,20.00,30.00,Friday
8,138648644.90075806
2,3, 1, 3, 0,20,30.00,40.00,Friday
8,142835105.06326452
2,3, 1, 3, 0,20,40.00,50.00,Friday
8,145759335.1453539
2,3, 1, 3, 0,20,50.00,60.00,Friday
8,147328631.9843228
2,3, 1, 3, 0,21, 0.00,10.00,Friday
8,149621627.63881493
2,3, 1, 3, 0,21,10.00,20.00,Friday
8,152977442.02686733
2,3, 1, 3, 0,21,20.00,30.00,Friday
8,155035520.73164916
2,3, 1, 3, 0,21,30.00,40.00,Friday
8,157429088.5876398
2,3, 1, 3, 0,21,40.00,50.00,Friday
8,159997831.28699976
2,3, 1, 3, 0,21,50.00,60.00,Friday
8,161559282.53017747
2,3, 1, 3, 0,22, 0.00,10.00,Friday
8,17315534.199786972
2,3, 1, 3, 0,22,10.00,20.00,Friday
8,21066029.130366456
2,3, 1, 3, 0,22,20.00,30.00,Friday
8,34420198.8799487
2,3, 1, 3, 0,22,30.00,40.00,Friday
8,43018441.44641132
2,3, 1, 3, 0,22,40.00,50.00,Friday
8,50798585.041913465
2,3, 1, 3, 0,22,50.00,60.00,Friday
8,49584533.28147244
2,3, 1, 3, 0,23, 0.00,10.00,Friday
8,53649189.10864169
2,3, 1, 3, 0,23,10.00,20.00,Friday
8,54213491.24724293
2,3, 1, 3, 0,23,20.00,30.00,Friday
8,54151907.46407863
2,3, 1, 3, 0,23,30.00,40.00,Friday
8,52873851.37428974
2,3, 1, 3, 0,23,40.00,50.00,Friday
8,51999291.442691
2,3, 1, 3, 0,23,50.00,60.00,Friday
8,51075798.84044417
2,3, 1, 3, 0,24, 0.00,10.00,Friday
8,54239453.01764036
2,3, 1, 3, 0,24,10.00,20.00,Friday
8,54445968.11832212
2,3, 1, 3, 0,24,20.00,30.00,Friday
8,54840464.4203049
2,3, 1, 3, 0,24,30.00,40.00,Friday
8,55171407.49189098
2,3, 1, 3, 0,24,40.00,50.00,Friday
8,55987845.03540808
2,3, 1, 3, 0,24,50.00,60.00,Friday
8,55643241.47696065
2,4, 1, 4, 0, 1, 0.00,10.00,Saturday
8,56001404.72020232
2,4, 1, 4, 0, 1,10.00,20.00,Saturday
8,55546797.79194995
2,4, 1, 4, 0, 1,20.00,30.00,Saturday
8,55503253.39708342
2,4, 1, 4, 0, 1,30.00,40.00,Saturday
8,54319109.13963839
2,4, 1, 4, 0, 1,40.00,50.00,Saturday
8,53659231.446144305
2,4, 1, 4, 0, 1,50.00,60.00,Saturday
8,52977165.19593403
2,4, 1, 4, 0, 2, 0.00,10.00,Saturday
8,52502788.811464086
2,4, 1, 4, 0, 2,10.00,20.00,Saturday
8,50573910.19561561
2,4, 1, 4, 0, 2,20.00,30.00,Saturday
8,49139161.043729834
2,4, 1, 4, 0, 2,30.00,40.00,Saturday
8,47691986.01917536
2,4, 1, 4, 0, 2,40.00,50.00,Saturday
8,46786848.309174456
2,4, 1, 4, 0, 2,50.00,60.00,Saturday
8,44761267.77845813
2,4, 1, 4, 0, 3, 0.00,10.00,Saturday
8,45026816.293984406
2,4, 1, 4, 0, 3,10.00,20.00,Saturday
8,45131053.26021731
2,4, 1, 4, 0, 3,20.00,30.00,Saturday
8,45763123.52673167
2,4, 1, 4, 0, 3,30.00,40.00,Saturday
8,45279786.318369076
2,4, 1, 4, 0, 3,40.00,50.00,Saturday
8,45346264.72980271
2,4, 1, 4, 0, 3,50.00,60.00,Saturday
8,45409907.77214733
2,4, 1, 4, 0, 4, 0.00,10.00,Saturday
8,46972167.902532205
2,4, 1, 4, 0, 4,10.00,20.00,Saturday
8,47328113.05672439
2,4, 1, 4, 0, 4,20.00,30.00,Saturday
8,48224739.59242561
2,4, 1, 4, 0, 4,30.00,40.00,Saturday
8,49120217.3535636
2,4, 1, 4, 0, 4,40.00,50.00,Saturday
8,50568780.82287162
2,4, 1, 4, 0, 4,50.00,60.00,Saturday
8,50907034.887502834
2,4, 1, 4, 0, 5, 0.00,10.00,Saturday
8,50189950.621575035
2,4, 1, 4, 0, 5,10.00,20.00,Saturday
8,49404006.389263354
2,4, 1, 4, 0, 5,20.00,30.00,Saturday
8,49159022.87301843
2,4, 1, 4, 0, 5,30.00,40.00,Saturday
8,47801509.682270534
2,4, 1, 4, 0, 5,40.00,50.00,Saturday
8,46995480.994408794
2,4, 1, 4, 0, 5,50.00,60.00,Saturday
8,46186782.01477029
2,4, 1, 4, 0, 6, 0.00,10.00,Saturday
8,48464800.28409297
2,4, 1, 4, 0, 6,10.00,20.00,Saturday
8,49591546.59949216
2,4, 1, 4, 0, 6,20.00,30.00,Saturday
8,51275055.59494167
2,4, 1, 4, 0, 6,30.00,40.00,Saturday
8,52967657.69409005
2,4, 1, 4, 0, 6,40.00,50.00,Saturday
8,55222460.138864666
2,4, 1, 4, 0, 6,50.00,60.00,Saturday
8,56377663.777500264
2,4, 1, 4, 0, 7, 0.00,10.00,Saturday
8,54270742.53690428
2,4, 1, 4, 0, 7,10.00,20.00,Saturday
8,52084068.63387135
2,4, 1, 4, 0, 7,20.00,30.00,Saturday
8,50420000.66301223
2,4, 1, 4, 0, 7,30.00,40.00,Saturday
8,47622439.00510583
2,4, 1, 4, 0, 7,40.00,50.00,Saturday
8,45350612.585516304
2,4, 1, 4, 0, 7,50.00,60.00,Saturday
8,43050275.248967074
2,4, 1, 4, 0, 8, 0.00,10.00,Saturday
8,87549241.14564435
2,4, 1, 4, 0, 8,10.00,20.00,Saturday
8,28893184.71578791
2,4, 1, 4, 0, 8,20.00,30.00,Saturday
8,61981652.266511805
2,4, 1, 4, 0, 8,30.00,40.00,Saturday
8,55080905.186858304
2,4, 1, 4, 0, 8,40.00,50.00,Saturday
8,54112467.132118054
2,4, 1, 4, 0, 8,50.00,60.00,Saturday
8,52685480.094300605
2,4, 1, 4, 0, 9, 0.00,10.00,Saturday
8,108063648.96368958
2,4, 1, 4, 0, 9,10.00,20.00,Saturday
8,93576099.9520665
2,4, 1, 4, 0, 9,20.00,30.00,Saturday
8,73582846.26720671
2,4, 1, 4, 0, 9,30.00,40.00,Saturday
8,73304174.28655773
2,4, 1, 4, 0, 9,40.00,50.00,Saturday
8,71105394.04116853
2,4, 1, 4, 0, 9,50.00,60.00,Saturday
8,68524072.7447969
2,4, 1, 4, 0,10, 0.00,10.00,Saturday
8,171771697.68918225
2,4, 1, 4, 0,10,10.00,20.00,Saturday
8,165328171.96722394
2,4, 1, 4, 0,10,20.00,30.00,Saturday
8,164623139.8065856
2,4, 1, 4, 0,10,30.00,40.00,Saturday
8,164332605.81418955
2,4, 1, 4, 0,10,40.00,50.00,Saturday
8,163396003.90980923
2,4, 1, 4, 0,10,50.00,60.00,Saturday
8,164246152.1464465
2,4, 1, 4, 0,11, 0.00,10.00,Saturday
8,158690046.05465138
2,4, 1, 4, 0,11,10.00,20.00,Saturday
8,157703981.27773762
2,4, 1, 4, 0,11,20.00,30.00,Saturday
8,157079647.99728817
2,4, 1, 4, 0,11,30.00,40.00,Saturday
8,156651140.39657986
2,4, 1, 4, 0,11,40.00,50.00,Saturday
8,156630846.10558972
2,4, 1, 4, 0,11,50.00,60.00,Saturday
8,156751739.0224195
2,4, 1, 4, 0,12, 0.00,10.00,Saturday
8,152127460.0640968
2,4, 1, 4, 0,12,10.00,20.00,Saturday
8,149313532.11332205
2,4, 1, 4, 0,12,20.00,30.00,Saturday
8,146810852.39918938
2,4, 1, 4, 0,12,30.00,40.00,Saturday
8,144368846.36509332
2,4, 1, 4, 0,12,40.00,50.00,Saturday
8,142002605.41513896
2,4, 1, 4, 0,12,50.00,60.00,Saturday
8,139703697.5054444
2,4, 1, 4, 0,13, 0.00,10.00,Saturday
8,139852905.3606564
2,4, 1, 4, 0,13,10.00,20.00,Saturday
8,140846154.90092167
2,4, 1, 4, 0,13,20.00,30.00,Saturday
8,141518488.2472152
2,4, 1, 4, 0,13,30.00,40.00,Saturday
8,142278310.17319208
2,4, 1, 4, 0,13,40.00,50.00,Saturday
8,143078915.396358
2,4, 1, 4, 0,13,50.00,60.00,Saturday
8,143902413.0225767
2,4, 1, 4, 0,14, 0.00,10.00,Saturday
8,142959416.57598275