Program Version,EnergyPlus, Version 23.2.0-7636e6b3e9, YMD=2025.01.12 17:47
1,5,Environment Title[],Latitude[deg],Longitude[deg],Time Zone[],Elevation[m]
2,8,Day of Simulation[],Month[],Day of Month[],DST Indicator[1=yes 0=no],Hour[],StartMinute[],EndMinute[],DayType
3,5,Cumulative Day of Simulation[],Month[],Day of Month[],DST Indicator[1=yes 0=no],DayType  ! When Daily Report Variables Requested
4,2,Cumulative Days of Simulation[],Month[]  ! When Monthly Report Variables Requested
5,1,Cumulative Days of Simulation[] ! When Run Period Report Variables Requested
6,1,Calendar Year of Simulation[] ! When Annual Report Variables Requested
9,1,Electricity:Facility [J] !TimeStep
End of Data Dictionary
1,RUN PERIOD 1,  51.11,-114.02,  -7.00,1084.10
2,1, 1, 1, 0, 1, 0.00,10.00,Sunday
9,27691143.54762262
2,1, 1, 1, 0, 1,10.00,20.00,Sunday
9,30041277.138855707
2,1, 1, 1, 0, 1,20.00,30.00,Sunday
9,32037711.052263472
2,1, 1, 1, 0, 1,30.00,40.00,Sunday
9,34067988.901461534
2,1, 1, 1, 0, 1,40.00,50.00,Sunday
9,36560764.46712472
2,1, 1, 1, 0, 1,50.00,60.00,Sunday
9,38170267.30531931
2,1, 1, 1, 0, 2, 0.00,10.00,Sunday
9,42747990.734147355
2,1, 1, 1, 0, 2,10.00,20.00,Sunday
9,45897522.48126198
2,1, 1, 1, 0, 2,20.00,30.00,Sunday
9,48863008.49225737
2,1, 1, 1, 0, 2,30.00,40.00,Sunday
9,51823511.40694124
2,1, 1, 1, 0, 2,40.00,50.00,Sunday
9,54135997.52185389
2,1, 1, 1, 0, 2,50.00,60.00,Sunday
9,56704219.16284874
2,1, 1, 1, 0, 3, 0.00,10.00,Sunday
9,58027968.24658363
2,1, 1, 1, 0, 3,10.00,20.00,Sunday
9,59291210.667210996
2,1, 1, 1, 0, 3,20.00,30.00,Sunday
9,59539696.87032209
2,1, 1, 1, 0, 3,30.00,40.00,Sunday
9,60204356.10475011
2,1, 1, 1, 0, 3,40.00,50.00,Sunday
9,60833962.54169106
2,1, 1, 1, 0, 3,50.00,60.00,Sunday
9,61434507.68381645
2,1, 1, 1, 0, 4, 0.00,10.00,Sunday
9,57865847.90550252
2,1, 1, 1, 0, 4,10.00,20.00,Sunday
9,53363727.259495385
2,1, 1, 1, 0, 4,20.00,30.00,Sunday
9,49336706.322230436
2,1, 1, 1, 0, 4,30.00,40.00,Sunday
9,45344922.5720596
2,1, 1, 1, 0, 4,40.00,50.00,Sunday
9,41796765.412334226
2,1, 1, 1, 0, 4,50.00,60.00,Sunday
9,37517655.53111303
2,1, 1, 1, 0, 5, 0.00,10.00,Sunday
9,39232585.2426527
2,1, 1, 1, 0, 5,10.00,20.00,Sunday
9,41098977.22865291
2,1, 1, 1, 0, 5,20.00,30.00,Sunday
9,42967765.2174319
2,1, 1, 1, 0, 5,30.00,40.00,Sunday
9,45274848.919101976
2,1, 1, 1, 0, 5,40.00,50.00,Sunday
9,46658192.76190677
2,1, 1, 1, 0, 5,50.00,60.00,Sunday
9,48477996.4746585
2,1, 1, 1, 0, 6, 0.00,10.00,Sunday
9,51325799.78884934
2,1, 1, 1, 0, 6,10.00,20.00,Sunday
9,54305985.50070053
2,1, 1, 1, 0, 6,20.00,30.00,Sunday
9,57462890.52833436
2,1, 1, 1, 0, 6,30.00,40.00,Sunday
9,59938771.403959155
2,1, 1, 1, 0, 6,40.00,50.00,Sunday
9,62745609.93334026
2,1, 1, 1, 0, 6,50.00,60.00,Sunday
9,65516772.09567128
2,1, 1, 1, 0, 7, 0.00,10.00,Sunday
9,61428427.292729944
2,1, 1, 1, 0, 7,10.00,20.00,Sunday
9,56516215.62963663
2,1, 1, 1, 0, 7,20.00,30.00,Sunday
9,52160335.99706979
2,1, 1, 1, 0, 7,30.00,40.00,Sunday
9,47911848.76918069
2,1, 1, 1, 0, 7,40.00,50.00,Sunday
9,43772944.17915933
2,1, 1, 1, 0, 7,50.00,60.00,Sunday
9,40194555.22978704
2,1, 1, 1, 0, 8, 0.00,10.00,Sunday
9,43254009.0033523
2,1, 1, 1, 0, 8,10.00,20.00,Sunday
9,46703500.378578484
2,1, 1, 1, 0, 8,20.00,30.00,Sunday
9,49933900.092865154
2,1, 1, 1, 0, 8,30.00,40.00,Sunday
9,53303819.374096766
2,1, 1, 1, 0, 8,40.00,50.00,Sunday
9,55736057.21904098
2,1, 1, 1, 0, 8,50.00,60.00,Sunday
9,58162788.86039952
2,1, 1, 1, 0, 9, 0.00,10.00,Sunday
9,56641509.60300658
2,1, 1, 1, 0, 9,10.00,20.00,Sunday
9,55265323.200322
2,1, 1, 1, 0, 9,20.00,30.00,Sunday
9,54382530.0793122
2,1, 1, 1, 0, 9,30.00,40.00,Sunday
9,52617352.2408861
2,1, 1, 1, 0, 9,40.00,50.00,Sunday
9,51148945.180490226
2,1, 1, 1, 0, 9,50.00,60.00,Sunday
9,49724324.639826864
2,1, 1, 1, 0,10, 0.00,10.00,Sunday
9,96396874.28129676
2,1, 1, 1, 0,10,10.00,20.00,Sunday
9,52348488.57618073
2,1, 1, 1, 0,10,20.00,30.00,Sunday
9,84435934.29209438
2,1, 1, 1, 0,10,30.00,40.00,Sunday
9,80773137.97753188
2,1, 1, 1, 0,10,40.00,50.00,Sunday
9,83146342.10631731
2,1, 1, 1, 0,10,50.00,60.00,Sunday
9,86314364.09845935
2,1, 1, 1, 0,11, 0.00,10.00,Sunday
9,124044734.76386186
2,1, 1, 1, 0,11,10.00,20.00,Sunday
9,106230155.49566647
2,1, 1, 1, 0,11,20.00,30.00,Sunday
9,96225357.9268344
2,1, 1, 1, 0,11,30.00,40.00,Sunday
9,92862772.54638217
2,1, 1, 1, 0,11,40.00,50.00,Sunday
9,87320367.01364273
2,1, 1, 1, 0,11,50.00,60.00,Sunday
9,82658507.28204371
2,1, 1, 1, 0,12, 0.00,10.00,Sunday
9,125141988.45830134
2,1, 1, 1, 0,12,10.00,20.00,Sunday
9,124482876.61112279
2,1, 1, 1, 0,12,20.00,30.00,Sunday
9,125616715.08147351
2,1, 1, 1, 0,12,30.00,40.00,Sunday
9,127377605.88064505
2,1, 1, 1, 0,12,40.00,50.00,Sunday
9,129442809.80513619
2,1, 1, 1, 0,12,50.00,60.00,Sunday
9,131307733.6523395
2,1, 1, 1, 0,13, 0.00,10.00,Sunday
9,126487826.62645885
2,1, 1, 1, 0,13,10.00,20.00,Sunday
9,123661039.9578967
2,1, 1, 1, 0,13,20.00,30.00,Sunday
9,121370530.73417374
2,1, 1, 1, 0,13,30.00,40.00,Sunday
9,118814912.01976354
2,1, 1, 1, 0,13,40.00,50.00,Sunday
9,116435206.80455564
2,1, 1, 1, 0,13,50.00,60.00,Sunday
9,114147449.55078939
2,1, 1, 1, 0,14, 0.00,10.00,Sunday
9,110792721.88628924
2,1, 1, 1, 0,14,10.00,20.00,Sunday
9,108872537.83210118
2,1, 1, 1, 0,14,20.00,30.00,Sunday
9,106836136.62636045
2,1, 1, 1, 0,14,30.00,40.00,Sunday
9,105021244.15910168
2,1, 1, 1, 0,14,40.00,50.00,Sunday
9,103302615.15422685
2,1, 1, 1, 0,14,50.00,60.00,Sunday
9,101648884.77015989
2,1, 1, 1, 0,15, 0.00,10.00,Sunday
9,97013337.42987037
2,1, 1, 1, 0,15,10.00,20.00,Sunday
9,93009879.55695057
2,1, 1, 1, 0,15,20.00,30.00,Sunday
9,89033175.93700379
2,1, 1, 1, 0,15,30.00,40.00,Sunday
9,85137399.2136433
2,1, 1, 1, 0,15,40.00,50.00,Sunday
9,81258723.17459522
2,1, 1, 1, 0,15,50.00,60.00,Sunday
9,77361735.91928151
2,1, 1, 1, 0,16, 0.00,10.00,Sunday
9,79644661.74379236
2,1, 1, 1, 0,16,10.00,20.00,Sunday
9,80700847.29826398
2,1, 1, 1, 0,16,20.00,30.00,Sunday
9,81882504.59519391
2,1, 1, 1, 0,16,30.00,40.00,Sunday
9,83200183.92308326
2,1, 1, 1, 0,16,40.00,50.00,Sunday
9,84309521.14044748
2,1, 1, 1, 0,16,50.00,60.00,Sunday
9,84932339.29057124
2,1, 1, 1, 0,17, 0.00,10.00,Sunday
9,84351388.42243439
2,1, 1, 1, 0,17,10.00,20.00,Sunday
9,83082583.56591366
2,1, 1, 1, 0,17,20.00,30.00,Sunday
9,81544564.91818534
2,1, 1, 1, 0,17,30.00,40.00,Sunday
9,79974553.42972949
2,1, 1, 1, 0,17,40.00,50.00,Sunday
9,78400493.33484004
2,1, 1, 1, 0,17,50.00,60.00,Sunday
9,76720481.47753729
2,1, 1, 1, 0,18, 0.00,10.00,Sunday
9,78597655.15282418
2,1, 1, 1, 0,18,10.00,20.00,Sunday
9,80094114.24443823
2,1, 1, 1, 0,18,20.00,30.00,Sunday
9,81481391.84056908
2,1, 1, 1, 0,18,30.00,40.00,Sunday
9,82873812.13049166
2,1, 1, 1, 0,18,40.00,50.00,Sunday
9,84149622.13124317
2,1, 1, 1, 0,18,50.00,60.00,Sunday
9,85450389.91167744
2,1, 1, 1, 0,19, 0.00,10.00,Sunday
9,81563551.78348957
2,1, 1, 1, 0,19,10.00,20.00,Sunday
9,82063303.0337614
2,1, 1, 1, 0,19,20.00,30.00,Sunday
9,81895317.53716151
2,1, 1, 1, 0,19,30.00,40.00,Sunday
9,81121110.69449525
2,1, 1, 1, 0,19,40.00,50.00,Sunday
9,81330217.9511946
2,1, 1, 1, 0,19,50.00,60.00,Sunday
9,80997233.89921504
2,1, 1, 1, 0,20, 0.00,10.00,Sunday
9,1335817.0940945493
2,1, 1, 1, 0,20,10.00,20.00,Sunday
9,1335817.0940945493
2,1, 1, 1, 0,20,20.00,30.00,Sunday
9,1361396.309961085
2,1, 1, 1, 0,20,30.00,40.00,Sunday
9,1764420.632324369
2,1, 1, 1, 0,20,40.00,50.00,Sunday
9,1757824.522472451
2,1, 1, 1, 0,20,50.00,60.00,Sunday
9,2122820.0556332404
2,1, 1, 1, 0,21, 0.00,10.00,Sunday
9,4534270.6316996375
2,1, 1, 1, 0,21,10.00,20.00,Sunday
9,5157280.068031092
2,1, 1, 1, 0,21,20.00,30.00,Sunday
9,8861912.247561242
2,1, 1, 1, 0,21,30.00,40.00,Sunday
9,7069410.931451866
2,1, 1, 1, 0,21,40.00,50.00,Sunday
9,6922946.610491936
2,1, 1, 1, 0,21,50.00,60.00,Sunday
9,6775433.786967854
2,1, 1, 1, 0,22, 0.00,10.00,Sunday
9,12456108.276673611
2,1, 1, 1, 0,22,10.00,20.00,Sunday
9,14995727.324922992
2,1, 1, 1, 0,22,20.00,30.00,Sunday
9,17669106.408341497
2,1, 1, 1, 0,22,30.00,40.00,Sunday
9,20291818.605158705
2,1, 1, 1, 0,22,40.00,50.00,Sunday
9,23157328.24772175
2,1, 1, 1, 0,22,50.00,60.00,Sunday
9,25594808.22652722
2,1, 1, 1, 0,23, 0.00,10.00,Sunday
9,26539914.948588815
2,1, 1, 1, 0,23,10.00,20.00,Sunday
9,26310212.649180293
2,1, 1, 1, 0,23,20.00,30.00,Sunday
9,25836064.565248344
2,1, 1, 1, 0,23,30.00,40.00,Sunday
9,25770844.38799338
2,1, 1, 1, 0,23,40.00,50.00,Sunday
9,24752681.54668328
2,1, 1, 1, 0,23,50.00,60.00,Sunday
9,24160373.8452737
2,1, 1, 1, 0,24, 0.00,10.00,Sunday
9,25760365.83596693
2,1, 1, 1, 0,24,10.00,20.00,Sunday
9,26723728.190092437
2,1, 1, 1, 0,24,20.00,30.00,Sunday
9,28024508.770723272
2,1, 1, 1, 0,24,30.00,40.00,Sunday
9,28403217.48135536
2,1, 1, 1, 0,24,40.00,50.00,Sunday
9,29210090.514004707
2,1, 1, 1, 0,24,50.00,60.00,Sunday
9,30004587.807482123
2,2, 1, 2, 0, 1, 0.00,10.00,Monday
9,33483428.516121794
2,2, 1, 2, 0, 1,10.00,20.00,Monday
9,35532024.209542595
2,2, 1, 2, 0, 1,20.00,30.00,Monday
9,37746021.891427055
2,2, 1, 2, 0, 1,30.00,40.00,Monday
9,39711041.794617735
2,2, 1, 2, 0, 1,40.00,50.00,Monday
9,41433221.769297
2,2, 1, 2, 0, 1,50.00,60.00,Monday
9,43370565.659858376
2,2, 1, 2, 0, 2, 0.00,10.00,Monday
9,42654809.10247131
2,2, 1, 2, 0, 2,10.00,20.00,Monday
9,42509409.72649041
2,2, 1, 2, 0, 2,20.00,30.00,Monday
9,42384771.60082984
2,2, 1, 2, 0, 2,30.00,40.00,Monday
9,42524596.627335235
2,2, 1, 2, 0, 2,40.00,50.00,Monday
9,42339535.19358195
2,2, 1, 2, 0, 2,50.00,60.00,Monday
9,42031526.21013177
2,2, 1, 2, 0, 3, 0.00,10.00,Monday
9,41036614.99333655
2,2, 1, 2, 0, 3,10.00,20.00,Monday
9,40166518.78215539
2,2, 1, 2, 0, 3,20.00,30.00,Monday
9,39773665.336510874
2,2, 1, 2, 0, 3,30.00,40.00,Monday
9,38476344.94261398
2,2, 1, 2, 0, 3,40.00,50.00,Monday
9,37635264.74185104
2,2, 1, 2, 0, 3,50.00,60.00,Monday
9,36794552.330046
2,2, 1, 2, 0, 4, 0.00,10.00,Monday
9,35699888.058950864
2,2, 1, 2, 0, 4,10.00,20.00,Monday
9,35023530.724354394
2,2, 1, 2, 0, 4,20.00,30.00,Monday
9,33459552.12113726
2,2, 1, 2, 0, 4,30.00,40.00,Monday
9,32360702.229961567
2,2, 1, 2, 0, 4,40.00,50.00,Monday
9,31253509.570877388
2,2, 1, 2, 0, 4,50.00,60.00,Monday
9,30645698.033884395
2,2, 1, 2, 0, 5, 0.00,10.00,Monday
9,32473233.12473965
2,2, 1, 2, 0, 5,10.00,20.00,Monday
9,34786032.17096732
2,2, 1, 2, 0, 5,20.00,30.00,Monday
9,37077673.068198316
2,2, 1, 2, 0, 5,30.00,40.00,Monday
9,39373719.425498046
2,2, 1, 2, 0, 5,40.00,50.00,Monday
9,42126956.86431282
2,2, 1, 2, 0, 5,50.00,60.00,Monday
9,43982357.95381397
2,2, 1, 2, 0, 6, 0.00,10.00,Monday
9,5823752.565669504
2,2, 1, 2, 0, 6,10.00,20.00,Monday
9,19956299.66410989
2,2, 1, 2, 0, 6,20.00,30.00,Monday
9,33309909.589433514
2,2, 1, 2, 0, 6,30.00,40.00,Monday
9,36877380.38249633
2,2, 1, 2, 0, 6,40.00,50.00,Monday
9,37540658.65204881
2,2, 1, 2, 0, 6,50.00,60.00,Monday
9,39765566.661398165
2,2, 1, 2, 0, 7, 0.00,10.00,Monday
9,38946408.456773214
2,2, 1, 2, 0, 7,10.00,20.00,Monday
9,84915279.11065894
2,2, 1, 2, 0, 7,20.00,30.00,Monday
9,28207679.72695575
2,2, 1, 2, 0, 7,30.00,40.00,Monday
9,58010171.68899751
2,2, 1, 2, 0, 7,40.00,50.00,Monday
9,47016771.01473294
2,2, 1, 2, 0, 7,50.00,60.00,Monday
9,42183979.36738863
2,2, 1, 2, 0, 8, 0.00,10.00,Monday
9,85022127.82022566
2,2, 1, 2, 0, 8,10.00,20.00,Monday
9,30228841.798596043
2,2, 1, 2, 0, 8,20.00,30.00,Monday
9,58916354.187436186
2,2, 1, 2, 0, 8,30.00,40.00,Monday
9,48476092.89824401
2,2, 1, 2, 0, 8,40.00,50.00,Monday
9,45729974.77692421
2,2, 1, 2, 0, 8,50.00,60.00,Monday
9,42563463.518874176
2,2, 1, 2, 0, 9, 0.00,10.00,Monday
9,90984926.58852473
2,2, 1, 2, 0, 9,10.00,20.00,Monday
9,39876657.616048284
2,2, 1, 2, 0, 9,20.00,30.00,Monday
9,71239011.25454031
2,2, 1, 2, 0, 9,30.00,40.00,Monday
9,64942498.38557757
2,2, 1, 2, 0, 9,40.00,50.00,Monday
9,66549672.70380647
2,2, 1, 2, 0, 9,50.00,60.00,Monday
9,67802981.49515265
2,2, 1, 2, 0,10, 0.00,10.00,Monday
9,114329411.21478124
2,2, 1, 2, 0,10,10.00,20.00,Monday
9,111481209.87103225
2,2, 1, 2, 0,10,20.00,30.00,Monday
9,109366254.26586723
2,2, 1, 2, 0,10,30.00,40.00,Monday
9,108336580.9054015
2,2, 1, 2, 0,10,40.00,50.00,Monday
9,107017620.46623503
2,2, 1, 2, 0,10,50.00,60.00,Monday
9,105417469.79280274
2,2, 1, 2, 0,11, 0.00,10.00,Monday
9,101279120.29093221
2,2, 1, 2, 0,11,10.00,20.00,Monday
9,100252301.13752085
2,2, 1, 2, 0,11,20.00,30.00,Monday
9,99447392.07321918
2,2, 1, 2, 0,11,30.00,40.00,Monday
9,98908012.24233189
2,2, 1, 2, 0,11,40.00,50.00,Monday
9,98512163.49715105
2,2, 1, 2, 0,11,50.00,60.00,Monday
9,98202666.28223614
2,2, 1, 2, 0,12, 0.00,10.00,Monday
9,92285638.98166187
2,2, 1, 2, 0,12,10.00,20.00,Monday
9,87313361.73482007
2,2, 1, 2, 0,12,20.00,30.00,Monday
9,82649551.3448981
2,2, 1, 2, 0,12,30.00,40.00,Monday
9,77908914.03712288
2,2, 1, 2, 0,12,40.00,50.00,Monday
9,73248852.64185075
2,2, 1, 2, 0,12,50.00,60.00,Monday
9,68590581.932234
2,2, 1, 2, 0,13, 0.00,10.00,Monday
9,69189841.73355307
2,2, 1, 2, 0,13,10.00,20.00,Monday
9,70118988.17461659
2,2, 1, 2, 0,13,20.00,30.00,Monday
9,71150674.37165335
2,2, 1, 2, 0,13,30.00,40.00,Monday
9,72700617.29290299
2,2, 1, 2, 0,13,40.00,50.00,Monday
9,74237431.53769203
2,2, 1, 2, 0,13,50.00,60.00,Monday
9,75814953.37771359
2,2, 1, 2, 0,14, 0.00,10.00,Monday
9,76075172.91402447
2,2, 1, 2, 0,14,10.00,20.00,Monday
9,76539887.43187928
2,2, 1, 2, 0,14,20.00,30.00,Monday
9,76985056.84636392
2,2, 1, 2, 0,14,30.00,40.00,Monday
9,76513132.22501491
2,2, 1, 2, 0,14,40.00,50.00,Monday
9,75912397.22144528
2,2, 1, 2, 0,14,50.00,60.00,Monday
9,75210132.10880633
2,2, 1, 2, 0,15, 0.00,10.00,Monday
9,73006188.17178874
2,2, 1, 2, 0,15,10.00,20.00,Monday
9,72776727.91052663
2,2, 1, 2, 0,15,20.00,30.00,Monday
9,72223792.83533838
2,2, 1, 2, 0,15,30.00,40.00,Monday
9,71614914.04257448
2,2, 1, 2, 0,15,40.00,50.00,Monday
9,70722560.9889559
2,2, 1, 2, 0,15,50.00,60.00,Monday
9,69578180.523662
2,2, 1, 2, 0,16, 0.00,10.00,Monday
9,65439976.86809033
2,2, 1, 2, 0,16,10.00,20.00,Monday
9,65353878.91438128
2,2, 1, 2, 0,16,20.00,30.00,Monday
9,65739734.74958985
2,2, 1, 2, 0,16,30.00,40.00,Monday
9,66626696.00769329
2,2, 1, 2, 0,16,40.00,50.00,Monday
9,67675547.0856205
2,2, 1, 2, 0,16,50.00,60.00,Monday
9,68841217.98974586
2,2, 1, 2, 0,17, 0.00,10.00,Monday
9,71157556.89133017
2,2, 1, 2, 0,17,10.00,20.00,Monday
9,71316210.70231584
2,2, 1, 2, 0,17,20.00,30.00,Monday
9,71498195.22642909
2,2, 1, 2, 0,17,30.00,40.00,Monday
9,72192434.04114501
2,2, 1, 2, 0,17,40.00,50.00,Monday
9,72170166.65885286
2,2, 1, 2, 0,17,50.00,60.00,Monday
9,71610815.71368243
2,2, 1, 2, 0,18, 0.00,10.00,Monday
9,73325581.87436081
2,2, 1, 2, 0,18,10.00,20.00,Monday
9,72122030.20756057
2,2, 1, 2, 0,18,20.00,30.00,Monday
9,70618172.201295
2,2, 1, 2, 0,18,30.00,40.00,Monday
9,69098740.23870382
2,2, 1, 2, 0,18,40.00,50.00,Monday
9,67562162.33092695
2,2, 1, 2, 0,18,50.00,60.00,Monday
9,65933402.41721033
2,2, 1, 2, 0,19, 0.00,10.00,Monday
9,71495292.50309795
2,2, 1, 2, 0,19,10.00,20.00,Monday
9,75869089.26674263
2,2, 1, 2, 0,19,20.00,30.00,Monday
9,79966405.61553489
2,2, 1, 2, 0,19,30.00,40.00,Monday
9,84033305.08925599
2,2, 1, 2, 0,19,40.00,50.00,Monday
9,87959309.911547
2,2, 1, 2, 0,19,50.00,60.00,Monday
9,91924283.20018251
2,2, 1, 2, 0,20, 0.00,10.00,Monday
9,87651498.15539916
2,2, 1, 2, 0,20,10.00,20.00,Monday
9,87577884.07094301
2,2, 1, 2, 0,20,20.00,30.00,Monday
9,86813006.00796641
2,2, 1, 2, 0,20,30.00,40.00,Monday
9,85509121.39358245
2,2, 1, 2, 0,20,40.00,50.00,Monday
9,85213466.6935326
2,2, 1, 2, 0,20,50.00,60.00,Monday
9,84376802.74646664
2,2, 1, 2, 0,21, 0.00,10.00,Monday
9,81346614.53546718
2,2, 1, 2, 0,21,10.00,20.00,Monday
9,78983436.65546942
2,2, 1, 2, 0,21,20.00,30.00,Monday
9,76544752.0107807
2,2, 1, 2, 0,21,30.00,40.00,Monday
9,73426327.81414817
2,2, 1, 2, 0,21,40.00,50.00,Monday
9,69384255.22817351
2,2, 1, 2, 0,21,50.00,60.00,Monday
9,66127084.58612285
2,2, 1, 2, 0,22, 0.00,10.00,Monday
9,1335817.0940945493
2,2, 1, 2, 0,22,10.00,20.00,Monday
9,1792693.6705260775
2,2, 1, 2, 0,22,20.00,30.00,Monday
9,2049728.8125732015
2,2, 1, 2, 0,22,30.00,40.00,Monday
9,5531969.5184042705
2,2, 1, 2, 0,22,40.00,50.00,Monday
9,16414562.685167106
2,2, 1, 2, 0,22,50.00,60.00,Monday
9,27469257.78439657
2,2, 1, 2, 0,23, 0.00,10.00,Monday
9,30366175.5902362
2,2, 1, 2, 0,23,10.00,20.00,Monday
9,29172729.213473696
2,2, 1, 2, 0,23,20.00,30.00,Monday
9,28732147.479645967
2,2, 1, 2, 0,23,30.00,40.00,Monday
9,27570787.12179887
2,2, 1, 2, 0,23,40.00,50.00,Monday
9,26719434.644299716
2,2, 1, 2, 0,23,50.00,60.00,Monday
9,24820839.540080857
2,2, 1, 2, 0,24, 0.00,10.00,Monday
9,25801940.51743281
2,2, 1, 2, 0,24,10.00,20.00,Monday
9,25111062.24514193
2,2, 1, 2, 0,24,20.00,30.00,Monday
9,24120565.34894932
2,2, 1, 2, 0,24,30.00,40.00,Monday
9,23500528.841619533
2,2, 1, 2, 0,24,40.00,50.00,Monday
9,21885800.91066
2,2, 1, 2, 0,24,50.00,60.00,Monday
9,20647009.951718576
2,3, 1, 3, 0, 1, 0.00,10.00,Tuesday
9,22140370.994515054
2,3, 1, 3, 0, 1,10.00,20.00,Tuesday
9,22895566.76305161
2,3, 1, 3, 0, 1,20.00,30.00,Tuesday
9,23029836.2698247
2,3, 1, 3, 0, 1,30.00,40.00,Tuesday
9,23072509.27343763
2,3, 1, 3, 0, 1,40.00,50.00,Tuesday
9,23225920.1459105
2,3, 1, 3, 0, 1,50.00,60.00,Tuesday
9,23337761.8754284
2,3, 1, 3, 0, 2, 0.00,10.00,Tuesday
9,23004191.74770116
2,3, 1, 3, 0, 2,10.00,20.00,Tuesday
9,21287094.71156597
2,3, 1, 3, 0, 2,20.00,30.00,Tuesday
9,19839021.26534391
2,3, 1, 3, 0, 2,30.00,40.00,Tuesday
9,18292775.293981943
2,3, 1, 3, 0, 2,40.00,50.00,Tuesday
9,16625085.4424419
2,3, 1, 3, 0, 2,50.00,60.00,Tuesday
9,15309917.916024799
2,3, 1, 3, 0, 3, 0.00,10.00,Tuesday
9,18468267.456577223
2,3, 1, 3, 0, 3,10.00,20.00,Tuesday
9,21775056.662647765
2,3, 1, 3, 0, 3,20.00,30.00,Tuesday
9,25226847.57297198
2,3, 1, 3, 0, 3,30.00,40.00,Tuesday
9,29348355.024419814
2,3, 1, 3, 0, 3,40.00,50.00,Tuesday
9,32774894.817491755
2,3, 1, 3, 0, 3,50.00,60.00,Tuesday
9,36933174.81718258
2,3, 1, 3, 0, 4, 0.00,10.00,Tuesday
9,35736833.83921242
2,3, 1, 3, 0, 4,10.00,20.00,Tuesday
9,34267527.832209155
2,3, 1, 3, 0, 4,20.00,30.00,Tuesday
9,33206736.03126072
2,3, 1, 3, 0, 4,30.00,40.00,Tuesday
9,31251952.574715015
2,3, 1, 3, 0, 4,40.00,50.00,Tuesday
9,29759902.444547854
2,3, 1, 3, 0, 4,50.00,60.00,Tuesday
9,28284962.987170085
2,3, 1, 3, 0, 5, 0.00,10.00,Tuesday
9,31097102.4423128
2,3, 1, 3, 0, 5,10.00,20.00,Tuesday
9,33220176.030700248
2,3, 1, 3, 0, 5,20.00,30.00,Tuesday
9,35395027.80356283
2,3, 1, 3, 0, 5,30.00,40.00,Tuesday
9,37595273.369558066
2,3, 1, 3, 0, 5,40.00,50.00,Tuesday
9,39627271.53352935
2,3, 1, 3, 0, 5,50.00,60.00,Tuesday
9,41996759.78953898
2,3, 1, 3, 0, 6, 0.00,10.00,Tuesday
9,40268636.072740994
2,3, 1, 3, 0, 6,10.00,20.00,Tuesday
9,39016942.7325817
2,3, 1, 3, 0, 6,20.00,30.00,Tuesday
9,37788742.59484746
2,3, 1, 3, 0, 6,30.00,40.00,Tuesday
9,36646182.322378434
2,3, 1, 3, 0, 6,40.00,50.00,Tuesday
9,35789163.210217796
2,3, 1, 3, 0, 6,50.00,60.00,Tuesday
9,34245821.68803858
2,3, 1, 3, 0, 7, 0.00,10.00,Tuesday
9,32952048.48694235
2,3, 1, 3, 0, 7,10.00,20.00,Tuesday
9,31523201.358795863
2,3, 1, 3, 0, 7,20.00,30.00,Tuesday
9,30386547.756278984
2,3, 1, 3, 0, 7,30.00,40.00,Tuesday
9,28136163.480987348
2,3, 1, 3, 0, 7,40.00,50.00,Tuesday
9,26198500.677929617
2,3, 1, 3, 0, 7,50.00,60.00,Tuesday
9,24081312.68079952
2,3, 1, 3, 0, 8, 0.00,10.00,Tuesday
9,68201409.57074153
2,3, 1, 3, 0, 8,10.00,20.00,Tuesday
9,13959788.022547293
2,3, 1, 3, 0, 8,20.00,30.00,Tuesday
9,39680390.78479226
2,3, 1, 3, 0, 8,30.00,40.00,Tuesday
9,34610843.79304794
2,3, 1, 3, 0, 8,40.00,50.00,Tuesday
9,31170464.143696032
2,3, 1, 3, 0, 8,50.00,60.00,Tuesday
9,30150351.35827261
2,3, 1, 3, 0, 9, 0.00,10.00,Tuesday
9,73982309.41156225
2,3, 1, 3, 0, 9,10.00,20.00,Tuesday
9,37578214.04946264
2,3, 1, 3, 0, 9,20.00,30.00,Tuesday
9,61011649.97657257
2,3, 1, 3, 0, 9,30.00,40.00,Tuesday
9,60076083.84818532
2,3, 1, 3, 0, 9,40.00,50.00,Tuesday
9,61873259.93270678
2,3, 1, 3, 0, 9,50.00,60.00,Tuesday
9,63940147.26670123
2,3, 1, 3, 0,10, 0.00,10.00,Tuesday
9,128896136.77688122
2,3, 1, 3, 0,10,10.00,20.00,Tuesday
9,136446491.5690373
2,3, 1, 3, 0,10,20.00,30.00,Tuesday
9,144459789.82081723
2,3, 1, 3, 0,10,30.00,40.00,Tuesday
9,151278936.71333113
2,3, 1, 3, 0,10,40.00,50.00,Tuesday
9,156845279.95017377
2,3, 1, 3, 0,10,50.00,60.00,Tuesday
9,161027159.30375203
2,3, 1, 3, 0,11, 0.00,10.00,Tuesday
9,147368296.8893095
2,3, 1, 3, 0,11,10.00,20.00,Tuesday
9,137895445.53005502
2,3, 1, 3, 0,11,20.00,30.00,Tuesday
9,129099158.39968313
2,3, 1, 3, 0,11,30.00,40.00,Tuesday
9,120985546.42840892
2,3, 1, 3, 0,11,40.00,50.00,Tuesday
9,113116172.08064057
2,3, 1, 3, 0,11,50.00,60.00,Tuesday
9,105393520.11749282
2,3, 1, 3, 0,12, 0.00,10.00,Tuesday
9,103899480.9832917
2,3, 1, 3, 0,12,10.00,20.00,Tuesday
9,102900618.96146727
2,3, 1, 3, 0,12,20.00,30.00,Tuesday
9,102126316.06632952
2,3, 1, 3, 0,12,30.00,40.00,Tuesday
9,101180529.38120691
2,3, 1, 3, 0,12,40.00,50.00,Tuesday
9,100221257.32960936
2,3, 1, 3, 0,12,50.00,60.00,Tuesday
9,99274273.80726005
2,3, 1, 3, 0,13, 0.00,10.00,Tuesday
9,101087451.9824407
2,3, 1, 3, 0,13,10.00,20.00,Tuesday
9,102451297.72321588
2,3, 1, 3, 0,13,20.00,30.00,Tuesday
9,103995927.94941394
2,3, 1, 3, 0,13,30.00,40.00,Tuesday
9,105507361.76474677
2,3, 1, 3, 0,13,40.00,50.00,Tuesday
9,107046196.26829745
2,3, 1, 3, 0,13,50.00,60.00,Tuesday
9,108591255.67771593
2,3, 1, 3, 0,14, 0.00,10.00,Tuesday
9,106751094.35221119
2,3, 1, 3, 0,14,10.00,20.00,Tuesday
9,105021329.69600974
2,3, 1, 3, 0,14,20.00,30.00,Tuesday
9,103334838.68741147
2,3, 1, 3, 0,14,30.00,40.00,Tuesday
9,101532898.19904907
2,3, 1, 3, 0,14,40.00,50.00,Tuesday
9,99711101.97442402
2,3, 1, 3, 0,14,50.00,60.00,Tuesday
9,97955009.56647839
2,3, 1, 3, 0,15, 0.00,10.00,Tuesday
9,101129465.3541372
2,3, 1, 3, 0,15,10.00,20.00,Tuesday
9,104590659.8204887
2,3, 1, 3, 0,15,20.00,30.00,Tuesday
9,107975753.93271334
2,3, 1, 3, 0,15,30.00,40.00,Tuesday
9,111309459.00268227
2,3, 1, 3, 0,15,40.00,50.00,Tuesday
9,114550153.45987004
2,3, 1, 3, 0,15,50.00,60.00,Tuesday
9,117864040.7474291
2,3, 1, 3, 0,16, 0.00,10.00,Tuesday
9,114341276.28777818
2,3, 1, 3, 0,16,10.00,20.00,Tuesday
9,112206352.20978498
2,3, 1, 3, 0,16,20.00,30.00,Tuesday
9,110298749.2938678
2,3, 1, 3, 0,16,30.00,40.00,Tuesday
9,108620222.2363552
2,3, 1, 3, 0,16,40.00,50.00,Tuesday
9,107038690.99338363
2,3, 1, 3, 0,16,50.00,60.00,Tuesday
9,105547856.90895881
2,3, 1, 3, 0,17, 0.00,10.00,Tuesday
9,104941111.96061748
2,3, 1, 3, 0,17,10.00,20.00,Tuesday
9,104190370.96386622
2,3, 1, 3, 0,17,20.00,30.00,Tuesday
9,103852935.42953338
2,3, 1, 3, 0,17,30.00,40.00,Tuesday
9,104135615.13140881
2,3, 1, 3, 0,17,40.00,50.00,Tuesday
9,103461656.82193632
2,3, 1, 3, 0,17,50.00,60.00,Tuesday
9,102563455.83687331
2,3, 1, 3, 0,18, 0.00,10.00,Tuesday
9,106352342.91915478
2,3, 1, 3, 0,18,10.00,20.00,Tuesday
9,108919696.69060391
2,3, 1, 3, 0,18,20.00,30.00,Tuesday
9,110974064.20862201
2,3, 1, 3, 0,18,30.00,40.00,Tuesday
9,113049045.54471883
2,3, 1, 3, 0,18,40.00,50.00,Tuesday
9,114985441.36276415
2,3, 1, 3, 0,18,50.00,60.00,Tuesday
9,116863015.87531091
2,3, 1, 3, 0,19, 0.00,10.00,Tuesday
9,117371571.42763944
2,3, 1, 3, 0,19,10.00,20.00,Tuesday
9,116896819.57256933
2,3, 1, 3, 0,19,20.00,30.00,Tuesday
9,116267068.37064137
2,3, 1, 3, 0,19,30.00,40.00,Tuesday
9,115596945.60343121
2,3, 1, 3, 0,19,40.00,50.00,Tuesday
9,114703315.76464479
2,3, 1, 3, 0,19,50.00,60.00,Tuesday
9,114008135.8608347
2,3, 1, 3, 0,20, 0.00,10.00,Tuesday
9,111210499.13631724
2,3, 1, 3, 0,20,10.00,20.00,Tuesday
9,112800718.46548241
2,3, 1, 3, 0,20,20.00,30.00,Tuesday
9,113800543.20953564
2,3, 1, 3, 0,20,30.00,40.00,Tuesday
9,114192892.58965176
2,3, 1, 3, 0,20,40.00,50.00,Tuesday
9,115666747.23628774
2,3, 1, 3, 0,20,50.00,60.00,Tuesday
9,116544008.16794525
2,3, 1, 3, 0,21, 0.00,10.00,Tuesday
9,115085613.64378724
2,3, 1, 3, 0,21,10.00,20.00,Tuesday
9,114643454.50009961
2,3, 1, 3, 0,21,20.00,30.00,Tuesday
9,114242620.82326134
2,3, 1, 3, 0,21,30.00,40.00,Tuesday
9,113479047.86441615
2,3, 1, 3, 0,21,40.00,50.00,Tuesday
9,112063396.19336875
2,3, 1, 3, 0,21,50.00,60.00,Tuesday
9,111705716.51388212
2,3, 1, 3, 0,22, 0.00,10.00,Tuesday
9,2969463.207825788
2,3, 1, 3, 0,22,10.00,20.00,Tuesday
9,14037911.62347391
2,3, 1, 3, 0,22,20.00,30.00,Tuesday
9,25489868.25900379
2,3, 1, 3, 0,22,30.00,40.00,Tuesday
9,33558855.07253116
2,3, 1, 3, 0,22,40.00,50.00,Tuesday
9,34445063.974205844
2,3, 1, 3, 0,22,50.00,60.00,Tuesday
9,34792486.79240117
2,3, 1, 3, 0,23, 0.00,10.00,Tuesday
9,39641236.432992145
2,3, 1, 3, 0,23,10.00,20.00,Tuesday
9,40706281.075683236
2,3, 1, 3, 0,23,20.00,30.00,Tuesday
9,40932426.97247821
2,3, 1, 3, 0,23,30.00,40.00,Tuesday
9,41044767.7897275
2,3, 1, 3, 0,23,40.00,50.00,Tuesday
9,41384200.704876296
2,3, 1, 3, 0,23,50.00,60.00,Tuesday
9,40863954.44476698
2,3, 1, 3, 0,24, 0.00,10.00,Tuesday
9,43000696.770243384
2,3, 1, 3, 0,24,10.00,20.00,Tuesday
9,43570656.98874529
2,3, 1, 3, 0,24,20.00,30.00,Tuesday
9,43743976.52978363
2,3, 1, 3, 0,24,30.00,40.00,Tuesday
9,44287209.52226299
2,3, 1, 3, 0,24,40.00,50.00,Tuesday
9,43834629.37143168
2,3, 1, 3, 0,24,50.00,60.00,Tuesday
9,43763388.419137314
2,4, 1, 4, 0, 1, 0.00,10.00,Wednesday
9,43643295.52008072
2,4, 1, 4, 0, 1,10.00,20.00,Wednesday
9,42517654.15201202
2,4, 1, 4, 0, 1,20.00,30.00,Wednesday
9,41191263.59448809
2,4, 1, 4, 0, 1,30.00,40.00,Wednesday
9,39130130.2718717
2,4, 1, 4, 0, 1,40.00,50.00,Wednesday
9,37231887.849630326
2,4, 1, 4, 0, 1,50.00,60.00,Wednesday
9,35169341.94467422
2,4, 1, 4, 0, 2, 0.00,10.00,Wednesday
9,37106427.841867186
2,4, 1, 4, 0, 2,10.00,20.00,Wednesday
9,37523271.856316134
2,4, 1, 4, 0, 2,20.00,30.00,Wednesday
9,38287884.88588934
2,4, 1, 4, 0, 2,30.00,40.00,Wednesday
9,39027838.89972764
2,4, 1, 4, 0, 2,40.00,50.00,Wednesday
9,39744127.85435838
2,4, 1, 4, 0, 2,50.00,60.00,Wednesday
9,40892213.17385694
2,4, 1, 4, 0, 3, 0.00,10.00,Wednesday
9,40894444.87037416
2,4, 1, 4, 0, 3,10.00,20.00,Wednesday
9,40934408.76708319
2,4, 1, 4, 0, 3,20.00,30.00,Wednesday
9,40899930.41442218
2,4, 1, 4, 0, 3,30.00,40.00,Wednesday
9,41301437.68140598
2,4, 1, 4, 0, 3,40.00,50.00,Wednesday
9,40771141.34051081
2,4, 1, 4, 0, 3,50.00,60.00,Wednesday
9,40683462.59814555
2,4, 1, 4, 0, 4, 0.00,10.00,Wednesday
9,41038784.11915086
2,4, 1, 4, 0, 4,10.00,20.00,Wednesday
9,41248329.047361925
2,4, 1, 4, 0, 4,20.00,30.00,Wednesday
9,41886858.987281226
2,4, 1, 4, 0, 4,30.00,40.00,Wednesday
9,41614298.70810611
2,4, 1, 4, 0, 4,40.00,50.00,Wednesday
9,41788820.80162715
2,4, 1, 4, 0, 4,50.00,60.00,Wednesday
9,41959529.62917612
2,4, 1, 4, 0, 5, 0.00,10.00,Wednesday
9,39847543.387328655
2,4, 1, 4, 0, 5,10.00,20.00,Wednesday
9,37556965.865386076
2,4, 1, 4, 0, 5,20.00,30.00,Wednesday
9,35006529.105294555
2,4, 1, 4, 0, 5,30.00,40.00,Wednesday
9,32781622.394048285
2,4, 1, 4, 0, 5,40.00,50.00,Wednesday
9,30629742.51701251
2,4, 1, 4, 0, 5,50.00,60.00,Wednesday
9,29007495.734233882
2,4, 1, 4, 0, 6, 0.00,10.00,Wednesday
9,29719924.906681195
2,4, 1, 4, 0, 6,10.00,20.00,Wednesday
9,30992350.355026383
2,4, 1, 4, 0, 6,20.00,30.00,Wednesday
9,32339060.52466908
2,4, 1, 4, 0, 6,30.00,40.00,Wednesday
9,33751995.020079985
2,4, 1, 4, 0, 6,40.00,50.00,Wednesday
9,35677139.406168394
2,4, 1, 4, 0, 6,50.00,60.00,Wednesday
9,36732017.01456693
2,4, 1, 4, 0, 7, 0.00,10.00,Wednesday
9,36001756.9683364
2,4, 1, 4, 0, 7,10.00,20.00,Wednesday
9,35061122.98550158
2,4, 1, 4, 0, 7,20.00,30.00,Wednesday
9,34548707.63372795
2,4, 1, 4, 0, 7,30.00,40.00,Wednesday
9,33120544.679928727
2,4, 1, 4, 0, 7,40.00,50.00,Wednesday
9,32149567.191045824
2,4, 1, 4, 0, 7,50.00,60.00,Wednesday
9,31184082.38983879
2,4, 1, 4, 0, 8, 0.00,10.00,Wednesday
9,77468333.18473512
2,4, 1, 4, 0, 8,10.00,20.00,Wednesday
9,24019009.904322613
2,4, 1, 4, 0, 8,20.00,30.00,Wednesday
9,58937040.77749583
2,4, 1, 4, 0, 8,30.00,40.00,Wednesday
9,51323517.763913915
2,4, 1, 4, 0, 8,40.00,50.00,Wednesday
9,52150342.21940098
2,4, 1, 4, 0, 8,50.00,60.00,Wednesday
9,53299002.618315585
2,4, 1, 4, 0, 9, 0.00,10.00,Wednesday
9,93381281.68488821
2,4, 1, 4, 0, 9,10.00,20.00,Wednesday
9,71368821.73226589
2,4, 1, 4, 0, 9,20.00,30.00,Wednesday
9,69407388.6255459
2,4, 1, 4, 0, 9,30.00,40.00,Wednesday
9,64770708.47386117
2,4, 1, 4, 0, 9,40.00,50.00,Wednesday
9,61599363.702670835
2,4, 1, 4, 0, 9,50.00,60.00,Wednesday
9,58929880.85953367
2,4, 1, 4, 0,10, 0.00,10.00,Wednesday
9,111138696.64493418
2,4, 1, 4, 0,10,10.00,20.00,Wednesday
9,108596648.62496604
2,4, 1, 4, 0,10,20.00,30.00,Wednesday
9,108075690.38539025
2,4, 1, 4, 0,10,30.00,40.00,Wednesday
9,107316461.24190326
2,4, 1, 4, 0,10,40.00,50.00,Wednesday
9,106491794.67115593
2,4, 1, 4, 0,10,50.00,60.00,Wednesday
9,105827403.61549206
2,4, 1, 4, 0,11, 0.00,10.00,Wednesday
9,98882510.75519542
2,4, 1, 4, 0,11,10.00,20.00,Wednesday
9,94672249.32240933
2,4, 1, 4, 0,11,20.00,30.00,Wednesday
9,90870631.37458155
2,4, 1, 4, 0,11,30.00,40.00,Wednesday
9,87166369.81170452
2,4, 1, 4, 0,11,40.00,50.00,Wednesday
9,83502147.88494213
2,4, 1, 4, 0,11,50.00,60.00,Wednesday
9,79856868.19350052
2,4, 1, 4, 0,12, 0.00,10.00,Wednesday
9,81865165.72382806
2,4, 1, 4, 0,12,10.00,20.00,Wednesday
9,84736919.74716115
2,4, 1, 4, 0,12,20.00,30.00,Wednesday
9,87633194.3061204
2,4, 1, 4, 0,12,30.00,40.00,Wednesday
9,90086645.15925893
2,4, 1, 4, 0,12,40.00,50.00,Wednesday
9,92321083.47572
2,4, 1, 4, 0,12,50.00,60.00,Wednesday
9,94399834.3767096
2,4, 1, 4, 0,13, 0.00,10.00,Wednesday
9,87585354.81287493
2,4, 1, 4, 0,13,10.00,20.00,Wednesday
9,83140186.61062226
2,4, 1, 4, 0,13,20.00,30.00,Wednesday
9,78729842.87241587
2,4, 1, 4, 0,13,30.00,40.00,Wednesday
9,74598992.79662552
2,4, 1, 4, 0,13,40.00,50.00,Wednesday
9,70631384.85120423
2,4, 1, 4, 0,13,50.00,60.00,Wednesday
9,66778424.28576016
2,4, 1, 4, 0,14, 0.00,10.00,Wednesday
9,64779471.81057727
2,4, 1, 4, 0,14,10.00,20.00,Wednesday
9,64649810.17271645
2,4, 1, 4, 0,14,20.00,30.00,Wednesday
9,64774902.15747171
2,4, 1, 4, 0,14,30.00,40.00,Wednesday
9,64868609.93211132
2,4, 1, 4, 0,14,40.00,50.00,Wednesday
9,64853063.40584243
2,4, 1, 4, 0,14,50.00,60.00,Wednesday
9,64952692.38537811
2,4, 1, 4, 0,15, 0.00,10.00,Wednesday
9,60699899.567431904
2,4, 1, 4, 0,15,10.00,20.00,Wednesday
9,58508157.3363443
2,4, 1, 4, 0,15,20.00,30.00,Wednesday
9,56571156.9098696
2,4, 1, 4, 0,15,30.00,40.00,Wednesday
9,54848747.20837832
2,4, 1, 4, 0,15,40.00,50.00,Wednesday
9,53240582.66812222