Program Version,EnergyPlus, Version 23.2.0-7636e6b3e9, YMD=2025.01.12 17:47
1,5,Environment Title[],Latitude[deg],Longitude[deg],Time Zone[],Elevation[m]
2,8,Day of Simulation[],Month[],Day of Month[],DST Indicator[1=yes 0=no],Hour[],StartMinute[],EndMinute[],DayType
3,5,Cumulative Day of Simulation[],Month[],Day of Month[],DST Indicator[1=yes 0=no],DayType  ! When Daily Report Variables Requested
4,2,Cumulative Days of Simulation[],Month[]  ! When Monthly Report Variables Requested
5,1,Cumulative Days of Simulation[] ! When Run Period Report Variables Requested
6,1,Calendar Year of Simulation[] ! When Annual Report Variables Requested
8,1,Electricity:Facility [J] !TimeStep
794,1,DistrictCooling:Facility [J] !TimeStep
End of Data Dictionary
1,CALGARY INTL AP ANN CLG .4% CONDNS DB=>MWB HVAC Sizing Pass 1,  51.11,-114.02,  -7.00,1084.10
2,1, 7,21, 0, 1, 0.00,10.00,SummerDesignDay
8,1129182.1561338278
794,0.0
2,1, 7,21, 0, 1,10.00,20.00,SummerDesignDay
8,1129182.1561338278
794,0.0
2,1, 7,21, 0, 1,20.00,30.00,SummerDesignDay
8,1129182.1561338278
794,0.0
2,1, 7,21, 0, 1,30.00,40.00,SummerDesignDay
8,1129182.1561338278
794,0.0
2,1, 7,21, 0, 1,40.00,50.00,SummerDesignDay
8,1129182.1561338278
794,0.0
2,1, 7,21, 0, 1,50.00,60.00,SummerDesignDay
8,1129182.1561338278
794,0.0
2,1, 7,21, 0, 2, 0.00,10.00,SummerDesignDay
8,1129182.1561338278
794,0.0
2,1, 7,21, 0, 2,10.00,20.00,SummerDesignDay
8,1129182.1561338278
794,0.0
2,1, 7,21, 0, 2,20.00,30.00,SummerDesignDay
8,1129182.1561338278
794,0.0
2,1, 7,21, 0, 2,30.00,40.00,SummerDesignDay
8,1129182.1561338278
794,0.0
2,1, 7,21, 0, 2,40.00,50.00,SummerDesignDay
8,1129182.1561338278
794,0.0
2,1, 7,21, 0, 2,50.00,60.00,SummerDesignDay
8,1129182.1561338278
794,0.0
2,1, 7,21, 0, 3, 0.00,10.00,SummerDesignDay
8,1129182.1561338278
794,0.0
2,1, 7,21, 0, 3,10.00,20.00,SummerDesignDay
8,1129182.1561338278
794,0.0
2,1, 7,21, 0, 3,20.00,30.00,SummerDesignDay
8,1129182.1561338278
794,0.0
2,1, 7,21, 0, 3,30.00,40.00,SummerDesignDay
8,1129182.1561338278
794,0.0
2,1, 7,21, 0, 3,40.00,50.00,SummerDesignDay
8,1129182.1561338278
794,0.0
2,1, 7,21, 0, 3,50.00,60.00,SummerDesignDay
8,1129182.1561338278
794,0.0
2,1, 7,21, 0, 4, 0.00,10.00,SummerDesignDay
8,1129182.1561338278
794,0.0
2,1, 7,21, 0, 4,10.00,20.00,SummerDesignDay
8,1129182.1561338278
794,0.0
2,1, 7,21, 0, 4,20.00,30.00,SummerDesignDay
8,1129182.1561338278
794,0.0
2,1, 7,21, 0, 4,30.00,40.00,SummerDesignDay
8,1129182.1561338278
794,0.0
2,1, 7,21, 0, 4,40.00,50.00,SummerDesignDay
8,1129182.1561338278
794,0.0
2,1, 7,21, 0, 4,50.00,60.00,SummerDesignDay
8,1129182.1561338278
794,0.0
2,1, 7,21, 0, 5, 0.00,10.00,SummerDesignDay
8,1129182.1561338278
794,0.0
2,1, 7,21, 0, 5,10.00,20.00,SummerDesignDay
8,1129182.1561338278
794,0.0
2,1, 7,21, 0, 5,20.00,30.00,SummerDesignDay
8,1129182.1561338278
794,0.0
2,1, 7,21, 0, 5,30.00,40.00,SummerDesignDay
8,1129182.1561338278
794,0.0
2,1, 7,21, 0, 5,40.00,50.00,SummerDesignDay
8,1129182.1561338278
794,0.0
2,1, 7,21, 0, 5,50.00,60.00,SummerDesignDay
8,1129182.1561338278
794,0.0
2,1, 7,21, 0, 6, 0.00,10.00,SummerDesignDay
8,1129182.1561338278
794,0.0
2,1, 7,21, 0, 6,10.00,20.00,SummerDesignDay
8,1129182.1561338278
794,0.0
2,1, 7,21, 0, 6,20.00,30.00,SummerDesignDay
8,1129182.1561338278
794,0.0
2,1, 7,21, 0, 6,30.00,40.00,SummerDesignDay
8,1129182.1561338278
794,0.0
2,1, 7,21, 0, 6,40.00,50.00,SummerDesignDay
8,1129182.1561338278
794,0.0
2,1, 7,21, 0, 6,50.00,60.00,SummerDesignDay
8,1129182.1561338278
794,0.0
2,1, 7,21, 0, 7, 0.00,10.00,SummerDesignDay
8,1129182.1561338278
794,0.0
2,1, 7,21, 0, 7,10.00,20.00,SummerDesignDay
8,1129182.1561338278
794,0.0
2,1, 7,21, 0, 7,20.00,30.00,SummerDesignDay
8,1129182.1561338278
794,0.0
2,1, 7,21, 0, 7,30.00,40.00,SummerDesignDay
8,1129182.1561338278
794,0.0
2,1, 7,21, 0, 7,40.00,50.00,SummerDesignDay
8,1129182.1561338278
794,0.0
2,1, 7,21, 0, 7,50.00,60.00,SummerDesignDay
8,1129182.1561338278
794,0.0
2,1, 7,21, 0, 8, 0.00,10.00,SummerDesignDay
8,1129182.1561338278
794,1287127.3729143871
2,1, 7,21, 0, 8,10.00,20.00,SummerDesignDay
8,1129182.1561338278
794,2276934.9543850757
2,1, 7,21, 0, 8,20.00,30.00,SummerDesignDay
8,1129182.1561338278
794,2914871.881039288
2,1, 7,21, 0, 8,30.00,40.00,SummerDesignDay
8,1129182.1561338278
794,3250191.6835418185
2,1, 7,21, 0, 8,40.00,50.00,SummerDesignDay
8,1129182.1561338278
794,3585895.1886992115
2,1, 7,21, 0, 8,50.00,60.00,SummerDesignDay
8,1129182.1561338278
794,3832935.9848274644
2,1, 7,21, 0, 9, 0.00,10.00,SummerDesignDay
8,11291821.561338281
794,6108783.810996013
2,1, 7,21, 0, 9,10.00,20.00,SummerDesignDay
8,11291821.561338281
794,6602643.970829856
2,1, 7,21, 0, 9,20.00,30.00,SummerDesignDay
8,11291821.561338281
794,6933984.846629974
2,1, 7,21, 0, 9,30.00,40.00,SummerDesignDay
8,11291821.561338281
794,7220874.793610323
2,1, 7,21, 0, 9,40.00,50.00,SummerDesignDay
8,11291821.561338281
794,7464790.613920251
2,1, 7,21, 0, 9,50.00,60.00,SummerDesignDay
8,11291821.561338281
794,7676961.060347798
2,1, 7,21, 0,10, 0.00,10.00,SummerDesignDay
8,20325278.810408894
794,9082458.577954631
2,1, 7,21, 0,10,10.00,20.00,SummerDesignDay
8,20325278.810408894
794,15664587.228119267
2,1, 7,21, 0,10,20.00,30.00,SummerDesignDay
8,20325278.810408894
794,27198165.577088848
2,1, 7,21, 0,10,30.00,40.00,SummerDesignDay
8,20325278.810408894
794,21528778.144765593
2,1, 7,21, 0,10,40.00,50.00,SummerDesignDay
8,20325278.810408894
794,25868867.166670006
2,1, 7,21, 0,10,50.00,60.00,SummerDesignDay
8,20325278.810408894
794,28549960.168163713
2,1, 7,21, 0,11, 0.00,10.00,SummerDesignDay
8,20325278.810408894
794,43541144.42834337
2,1, 7,21, 0,11,10.00,20.00,SummerDesignDay
8,20325278.810408894
794,47716542.05315628
2,1, 7,21, 0,11,20.00,30.00,SummerDesignDay
8,20325278.810408894
794,50600056.013775766
2,1, 7,21, 0,11,30.00,40.00,SummerDesignDay
8,20325278.810408894
794,53108352.34414914
2,1, 7,21, 0,11,40.00,50.00,SummerDesignDay
8,20325278.810408894
794,55267610.49397378
2,1, 7,21, 0,11,50.00,60.00,SummerDesignDay
8,20325278.810408894
794,57148554.3317961
2,1, 7,21, 0,12, 0.00,10.00,SummerDesignDay
8,20325278.810408894
794,67495733.00933789
2,1, 7,21, 0,12,10.00,20.00,SummerDesignDay
8,20325278.810408894
794,69935191.8663366
2,1, 7,21, 0,12,20.00,30.00,SummerDesignDay
8,20325278.810408894
794,71566936.31922203
2,1, 7,21, 0,12,30.00,40.00,SummerDesignDay
8,20325278.810408894
794,72950423.8903081
2,1, 7,21, 0,12,40.00,50.00,SummerDesignDay
8,20325278.810408894
794,74133846.51504762
2,1, 7,21, 0,12,50.00,60.00,SummerDesignDay
8,20325278.810408894
794,75164984.58712104
2,1, 7,21, 0,13, 0.00,10.00,SummerDesignDay
8,20325278.810408894
794,81090072.4014693
2,1, 7,21, 0,13,10.00,20.00,SummerDesignDay
8,20325278.810408894
794,82496688.50521237
2,1, 7,21, 0,13,20.00,30.00,SummerDesignDay
8,20325278.810408894
794,83517368.63070557
2,1, 7,21, 0,13,30.00,40.00,SummerDesignDay
8,20325278.810408894
794,84391580.36804071
2,1, 7,21, 0,13,40.00,50.00,SummerDesignDay
8,20325278.810408894
794,85149837.23004872
2,1, 7,21, 0,13,50.00,60.00,SummerDesignDay
8,20325278.810408894
794,85823171.19718002
2,1, 7,21, 0,14, 0.00,10.00,SummerDesignDay
8,20325278.810408894
794,88104412.6995158
2,1, 7,21, 0,14,10.00,20.00,SummerDesignDay
8,20325278.810408894
794,88718899.21494883
2,1, 7,21, 0,14,20.00,30.00,SummerDesignDay
8,20325278.810408894
794,89158709.38129556
2,1, 7,21, 0,14,30.00,40.00,SummerDesignDay
8,20325278.810408894
794,89528395.32541992
2,1, 7,21, 0,14,40.00,50.00,SummerDesignDay
8,20325278.810408894
794,89836252.23458572
2,1, 7,21, 0,14,50.00,60.00,SummerDesignDay
8,20325278.810408894
794,90089052.54842234
2,1, 7,21, 0,15, 0.00,10.00,SummerDesignDay
8,20325278.810408894
794,89755735.96285886
2,1, 7,21, 0,15,10.00,20.00,SummerDesignDay
8,20325278.810408894
794,89596483.47347175
2,1, 7,21, 0,15,20.00,30.00,SummerDesignDay
8,20325278.810408894
794,89400198.93750209
2,1, 7,21, 0,15,30.00,40.00,SummerDesignDay
8,20325278.810408894
794,89168835.90267237
2,1, 7,21, 0,15,40.00,50.00,SummerDesignDay
8,20325278.810408894
794,88903302.32440287
2,1, 7,21, 0,15,50.00,60.00,SummerDesignDay
8,20325278.810408894
794,88604041.8378709
2,1, 7,21, 0,16, 0.00,10.00,SummerDesignDay
8,20325278.810408894
794,85254187.03858945
2,1, 7,21, 0,16,10.00,20.00,SummerDesignDay
8,20325278.810408894
794,84215907.35098319
2,1, 7,21, 0,16,20.00,30.00,SummerDesignDay
8,20325278.810408894
794,83312879.64813481
2,1, 7,21, 0,16,30.00,40.00,SummerDesignDay
8,20325278.810408894
794,82423906.62983713
2,1, 7,21, 0,16,40.00,50.00,SummerDesignDay
8,20325278.810408894
794,81540148.55903019
2,1, 7,21, 0,16,50.00,60.00,SummerDesignDay
8,20325278.810408894
794,80654251.33823864
2,1, 7,21, 0,17, 0.00,10.00,SummerDesignDay
8,20325278.810408894
794,74733135.53767404
2,1, 7,21, 0,17,10.00,20.00,SummerDesignDay
8,20325278.810408894
794,73100223.82812017
2,1, 7,21, 0,17,20.00,30.00,SummerDesignDay
8,20325278.810408894
794,71804696.12306328
2,1, 7,21, 0,17,30.00,40.00,SummerDesignDay
8,20325278.810408894
794,70573265.23891398
2,1, 7,21, 0,17,40.00,50.00,SummerDesignDay
8,20325278.810408894
794,69390399.41435848
2,1, 7,21, 0,17,50.00,60.00,SummerDesignDay
8,20325278.810408894
794,68246834.09300447
2,1, 7,21, 0,18, 0.00,10.00,SummerDesignDay
8,20325278.810408894
794,60608368.48239226
2,1, 7,21, 0,18,10.00,20.00,SummerDesignDay
8,20325278.810408894
794,58618940.469534524
2,1, 7,21, 0,18,20.00,30.00,SummerDesignDay
8,20325278.810408894
794,57084820.89635508
2,1, 7,21, 0,18,30.00,40.00,SummerDesignDay
8,20325278.810408894
794,55737120.21000452
2,1, 7,21, 0,18,40.00,50.00,SummerDesignDay
8,20325278.810408894
794,54536033.804618604
2,1, 7,21, 0,18,50.00,60.00,SummerDesignDay
8,20325278.810408894
794,53382799.58286734
2,1, 7,21, 0,19, 0.00,10.00,SummerDesignDay
8,20325278.810408894
794,46276100.25387288
2,1, 7,21, 0,19,10.00,20.00,SummerDesignDay
8,20325278.810408894
794,44290544.18032655
2,1, 7,21, 0,19,20.00,30.00,SummerDesignDay
8,20325278.810408894
794,42708496.48364289
2,1, 7,21, 0,19,30.00,40.00,SummerDesignDay
8,20325278.810408894
794,41240985.58311804
2,1, 7,21, 0,19,40.00,50.00,SummerDesignDay
8,20325278.810408894
794,39861419.40969794
2,1, 7,21, 0,19,50.00,60.00,SummerDesignDay
8,20325278.810408894
794,38532908.87225813
2,1, 7,21, 0,20, 0.00,10.00,SummerDesignDay
8,13550185.873605939
794,29758443.548950877
2,1, 7,21, 0,20,10.00,20.00,SummerDesignDay
8,13550185.873605939
794,27780438.60875051
2,1, 7,21, 0,20,20.00,30.00,SummerDesignDay
8,13550185.873605939
794,26280185.37022185
2,1, 7,21, 0,20,30.00,40.00,SummerDesignDay
8,13550185.873605939
794,24874646.111757204
2,1, 7,21, 0,20,40.00,50.00,SummerDesignDay
8,13550185.873605939
794,23507357.298194014
2,1, 7,21, 0,20,50.00,60.00,SummerDesignDay
8,13550185.873605939
794,22109689.457470343
2,1, 7,21, 0,21, 0.00,10.00,SummerDesignDay
8,11291821.561338281
794,14026702.818383368
2,1, 7,21, 0,21,10.00,20.00,SummerDesignDay
8,11291821.561338281
794,11907542.885857858
2,1, 7,21, 0,21,20.00,30.00,SummerDesignDay
8,11291821.561338281
794,10247080.818184942
2,1, 7,21, 0,21,30.00,40.00,SummerDesignDay
8,11291821.561338281
794,8636129.52577075
2,1, 7,21, 0,21,40.00,50.00,SummerDesignDay
8,11291821.561338281
794,7489524.508377437
2,1, 7,21, 0,21,50.00,60.00,SummerDesignDay
8,11291821.561338281
794,6555357.596696811
2,1, 7,21, 0,22, 0.00,10.00,SummerDesignDay
8,1129182.1561338278
794,0.0
2,1, 7,21, 0,22,10.00,20.00,SummerDesignDay
8,1129182.1561338278
794,0.0
2,1, 7,21, 0,22,20.00,30.00,SummerDesignDay
8,1129182.1561338278
794,0.0
2,1, 7,21, 0,22,30.00,40.00,SummerDesignDay
8,1129182.1561338278
794,0.0
2,1, 7,21, 0,22,40.00,50.00,SummerDesignDay
8,1129182.1561338278
794,0.0
2,1, 7,21, 0,22,50.00,60.00,SummerDesignDay
8,1129182.1561338278
794,0.0
2,1, 7,21, 0,23, 0.00,10.00,SummerDesignDay
8,1129182.1561338278
794,0.0
2,1, 7,21, 0,23,10.00,20.00,SummerDesignDay
8,1129182.1561338278
794,0.0
2,1, 7,21, 0,23,20.00,30.00,SummerDesignDay
8,1129182.1561338278
794,0.0
2,1, 7,21, 0,23,30.00,40.00,SummerDesignDay
8,1129182.1561338278
794,0.0
2,1, 7,21, 0,23,40.00,50.00,SummerDesignDay
8,1129182.1561338278
794,0.0
2,1, 7,21, 0,23,50.00,60.00,SummerDesignDay
8,1129182.1561338278
794,0.0
2,1, 7,21, 0,24, 0.00,10.00,SummerDesignDay
8,1129182.1561338278
794,0.0
2,1, 7,21, 0,24,10.00,20.00,SummerDesignDay
8,1129182.1561338278
794,0.0
2,1, 7,21, 0,24,20.00,30.00,SummerDesignDay
8,1129182.1561338278
794,0.0
2,1, 7,21, 0,24,30.00,40.00,SummerDesignDay
8,1129182.1561338278
794,0.0
2,1, 7,21, 0,24,40.00,50.00,SummerDesignDay
8,1129182.1561338278
794,0.0
2,1, 7,21, 0,24,50.00,60.00,SummerDesignDay
8,1129182.1561338278
794,0.0
1,CALGARY INTL AP ANN CLG .4% CONDNS WB=>MDB HVAC Sizing Pass 1,  51.11,-114.02,  -7.00,1084.10
2,1, 7,21, 0, 1, 0.00,10.00,SummerDesignDay
8,1129182.1561338278
794,0.0
2,1, 7,21, 0, 1,10.00,20.00,SummerDesignDay
8,1129182.1561338278
794,0.0
2,1, 7,21, 0, 1,20.00,30.00,SummerDesignDay
8,1129182.1561338278
794,0.0
2,1, 7,21, 0, 1,30.00,40.00,SummerDesignDay
8,1129182.1561338278
794,0.0
2,1, 7,21, 0, 1,40.00,50.00,SummerDesignDay
8,1129182.1561338278
794,0.0
2,1, 7,21, 0, 1,50.00,60.00,SummerDesignDay
8,1129182.1561338278
794,0.0
2,1, 7,21, 0, 2, 0.00,10.00,SummerDesignDay
8,1129182.1561338278
794,0.0
2,1, 7,21, 0, 2,10.00,20.00,SummerDesignDay
8,1129182.1561338278
794,0.0
2,1, 7,21, 0, 2,20.00,30.00,SummerDesignDay
8,1129182.1561338278
794,0.0
2,1, 7,21, 0, 2,30.00,40.00,SummerDesignDay
8,1129182.1561338278
794,0.0
2,1, 7,21, 0, 2,40.00,50.00,SummerDesignDay
8,1129182.1561338278
794,0.0
2,1, 7,21, 0, 2,50.00,60.00,SummerDesignDay
8,1129182.1561338278
794,0.0
2,1, 7,21, 0, 3, 0.00,10.00,SummerDesignDay
8,1129182.1561338278
794,0.0
2,1, 7,21, 0, 3,10.00,20.00,SummerDesignDay
8,1129182.1561338278
794,0.0
2,1, 7,21, 0, 3,20.00,30.00,SummerDesignDay
8,1129182.1561338278
794,0.0
2,1, 7,21, 0, 3,30.00,40.00,SummerDesignDay
8,1129182.1561338278
794,0.0
2,1, 7,21, 0, 3,40.00,50.00,SummerDesignDay
8,1129182.1561338278
794,0.0
2,1, 7,21, 0, 3,50.00,60.00,SummerDesignDay
8,1129182.1561338278
794,0.0
2,1, 7,21, 0, 4, 0.00,10.00,SummerDesignDay
8,1129182.1561338278
794,0.0
2,1, 7,21, 0, 4,10.00,20.00,SummerDesignDay
8,1129182.1561338278
794,0.0
2,1, 7,21, 0, 4,20.00,30.00,SummerDesignDay
8,1129182.1561338278
794,0.0
2,1, 7,21, 0, 4,30.00,40.00,SummerDesignDay
8,1129182.1561338278
794,0.0
2,1, 7,21, 0, 4,40.00,50.00,SummerDesignDay
8,1129182.1561338278
794,0.0
2,1, 7,21, 0, 4,50.00,60.00,SummerDesignDay
8,1129182.1561338278
794,0.0
2,1, 7,21, 0, 5, 0.00,10.00,SummerDesignDay
8,1129182.1561338278
794,0.0
2,1, 7,21, 0, 5,10.00,20.00,SummerDesignDay
8,1129182.1561338278
794,0.0
2,1, 7,21, 0, 5,20.00,30.00,SummerDesignDay
8,1129182.1561338278
794,0.0
2,1, 7,21, 0, 5,30.00,40.00,SummerDesignDay
8,1129182.1561338278
794,0.0
2,1, 7,21, 0, 5,40.00,50.00,SummerDesignDay
8,1129182.1561338278
794,0.0
2,1, 7,21, 0, 5,50.00,60.00,SummerDesignDay
8,1129182.1561338278
794,0.0
2,1, 7,21, 0, 6, 0.00,10.00,SummerDesignDay
8,1129182.1561338278
794,0.0
2,1, 7,21, 0, 6,10.00,20.00,SummerDesignDay
8,1129182.1561338278
794,0.0
2,1, 7,21, 0, 6,20.00,30.00,SummerDesignDay
8,1129182.1561338278
794,0.0
2,1, 7,21, 0, 6,30.00,40.00,SummerDesignDay
8,1129182.1561338278
794,0.0
2,1, 7,21, 0, 6,40.00,50.00,SummerDesignDay
8,1129182.1561338278
794,0.0
2,1, 7,21, 0, 6,50.00,60.00,SummerDesignDay
8,1129182.1561338278
794,0.0
2,1, 7,21, 0, 7, 0.00,10.00,SummerDesignDay
8,1129182.1561338278
794,0.0
2,1, 7,21, 0, 7,10.00,20.00,SummerDesignDay
8,1129182.1561338278
794,0.0
2,1, 7,21, 0, 7,20.00,30.00,SummerDesignDay
8,1129182.1561338278
794,0.0
2,1, 7,21, 0, 7,30.00,40.00,SummerDesignDay
8,1129182.1561338278
794,0.0
2,1, 7,21, 0, 7,40.00,50.00,SummerDesignDay
8,1129182.1561338278
794,0.0
2,1, 7,21, 0, 7,50.00,60.00,SummerDesignDay
8,1129182.1561338278
794,0.0
2,1, 7,21, 0, 8, 0.00,10.00,SummerDesignDay
8,1129182.1561338278
794,0.0
2,1, 7,21, 0, 8,10.00,20.00,SummerDesignDay
8,1129182.1561338278
794,288367.84195243276
2,1, 7,21, 0, 8,20.00,30.00,SummerDesignDay
8,1129182.1561338278
794,1257911.8446186555
2,1, 7,21, 0, 8,30.00,40.00,SummerDesignDay
8,1129182.1561338278
794,2499753.3915514364
2,1, 7,21, 0, 8,40.00,50.00,SummerDesignDay
8,1129182.1561338278
794,3101923.1751637263
2,1, 7,21, 0, 8,50.00,60.00,SummerDesignDay
8,1129182.1561338278
794,3358717.6532997186
2,1, 7,21, 0, 9, 0.00,10.00,SummerDesignDay
8,11291821.561338281
794,6927095.438096598
2,1, 7,21, 0, 9,10.00,20.00,SummerDesignDay
8,11291821.561338281
794,7698035.385667505
2,1, 7,21, 0, 9,20.00,30.00,SummerDesignDay
8,11291821.561338281
794,8199470.111485702
2,1, 7,21, 0, 9,30.00,40.00,SummerDesignDay
8,11291821.561338281
794,8629450.934301574
2,1, 7,21, 0, 9,40.00,50.00,SummerDesignDay
8,11291821.561338281
794,8996168.481918892
2,1, 7,21, 0, 9,50.00,60.00,SummerDesignDay
8,11291821.561338281
794,9312217.060352439
2,1, 7,21, 0,10, 0.00,10.00,SummerDesignDay
8,20325278.810408894
794,10645679.531841593
2,1, 7,21, 0,10,10.00,20.00,SummerDesignDay
8,20325278.810408894
794,10770445.942790965
2,1, 7,21, 0,10,20.00,30.00,SummerDesignDay
8,20325278.810408894
794,10852273.387041986
2,1, 7,21, 0,10,30.00,40.00,SummerDesignDay
8,20325278.810408894
794,11827290.350750223
2,1, 7,21, 0,10,40.00,50.00,SummerDesignDay
8,20325278.810408894
794,22069779.155058593
2,1, 7,21, 0,10,50.00,60.00,SummerDesignDay
8,20325278.810408894
794,23058179.92852683
2,1, 7,21, 0,11, 0.00,10.00,SummerDesignDay
8,20325278.810408894
794,42256762.8796818
2,1, 7,21, 0,11,10.00,20.00,SummerDesignDay
8,20325278.810408894
794,49305216.098788895
2,1, 7,21, 0,11,20.00,30.00,SummerDesignDay
8,20325278.810408894
794,53461216.54598804
2,1, 7,21, 0,11,30.00,40.00,SummerDesignDay
8,20325278.810408894
794,57052083.510358594
2,1, 7,21, 0,11,40.00,50.00,SummerDesignDay
8,20325278.810408894
794,60152278.4414001
2,1, 7,21, 0,11,50.00,60.00,SummerDesignDay
8,20325278.810408894
794,62865192.99188883
2,1, 7,21, 0,12, 0.00,10.00,SummerDesignDay
8,20325278.810408894
794,78207026.15569435
2,1, 7,21, 0,12,10.00,20.00,SummerDesignDay
8,20325278.810408894
794,81868122.5000201
2,1, 7,21, 0,12,20.00,30.00,SummerDesignDay
8,20325278.810408894
794,84358053.16572204
2,1, 7,21, 0,12,30.00,40.00,SummerDesignDay
8,20325278.810408894
794,86476023.93332611
2,1, 7,21, 0,12,40.00,50.00,SummerDesignDay
8,20325278.810408894
794,88278172.90181538
2,1, 7,21, 0,12,50.00,60.00,SummerDesignDay
8,20325278.810408894
794,89793563.08323725
2,1, 7,21, 0,13, 0.00,10.00,SummerDesignDay
8,20325278.810408894
794,95821866.2230427
2,1, 7,21, 0,13,10.00,20.00,SummerDesignDay
8,20325278.810408894
794,95806031.6190056
2,1, 7,21, 0,13,20.00,30.00,SummerDesignDay
8,20325278.810408894
794,95764474.42950378
2,1, 7,21, 0,13,30.00,40.00,SummerDesignDay
8,20325278.810408894
794,96001485.45092648
2,1, 7,21, 0,13,40.00,50.00,SummerDesignDay
8,20325278.810408894
794,96423394.04505807
2,1, 7,21, 0,13,50.00,60.00,SummerDesignDay
8,20325278.810408894
794,96928241.33729474
2,1, 7,21, 0,14, 0.00,10.00,SummerDesignDay
8,20325278.810408894
794,99271131.70631233
2,1, 7,21, 0,14,10.00,20.00,SummerDesignDay
8,20325278.810408894
794,99837367.18574333
2,1, 7,21, 0,14,20.00,30.00,SummerDesignDay
8,20325278.810408894
794,100236201.97997299
2,1, 7,21, 0,14,30.00,40.00,SummerDesignDay
8,20325278.810408894
794,100579138.2014999
2,1, 7,21, 0,14,40.00,50.00,SummerDesignDay
8,20325278.810408894
794,100871752.87360665
2,1, 7,21, 0,14,50.00,60.00,SummerDesignDay
8,20325278.810408894
794,101116897.38951448
2,1, 7,21, 0,15, 0.00,10.00,SummerDesignDay
8,20325278.810408894
794,100803050.6570687
2,1, 7,21, 0,15,10.00,20.00,SummerDesignDay
8,20325278.810408894
794,100641006.04736148
2,1, 7,21, 0,15,20.00,30.00,SummerDesignDay
8,20325278.810408894
794,100440846.90575445
2,1, 7,21, 0,15,30.00,40.00,SummerDesignDay
8,20325278.810408894
794,100206394.66257183
2,1, 7,21, 0,15,40.00,50.00,SummerDesignDay
8,20325278.810408894
794,99937877.9330579
2,1, 7,21, 0,15,50.00,60.00,SummerDesignDay
8,20325278.810408894
794,99635558.47958301
2,1, 7,21, 0,16, 0.00,10.00,SummerDesignDay
8,20325278.810408894
794,96208287.13768503
2,1, 7,21, 0,16,10.00,20.00,SummerDesignDay
8,20325278.810408894
794,95162754.63835809
2,1, 7,21, 0,16,20.00,30.00,SummerDesignDay
8,20325278.810408894
794,94260721.08792782
2,1, 7,21, 0,16,30.00,40.00,SummerDesignDay
8,20325278.810408894
794,93372450.57939929
2,1, 7,21, 0,16,40.00,50.00,SummerDesignDay
8,20325278.810408894
794,92487163.66841486
2,1, 7,21, 0,16,50.00,60.00,SummerDesignDay
8,20325278.810408894
794,91596810.08466785
2,1, 7,21, 0,17, 0.00,10.00,SummerDesignDay
8,20325278.810408894
794,85504931.07357296
2,1, 7,21, 0,17,10.00,20.00,SummerDesignDay
8,20325278.810408894
794,83856581.15278313
2,1, 7,21, 0,17,20.00,30.00,SummerDesignDay
8,20325278.810408894
794,82561034.61783338
2,1, 7,21, 0,17,30.00,40.00,SummerDesignDay
8,20325278.810408894
794,81331096.70549603
2,1, 7,21, 0,17,40.00,50.00,SummerDesignDay
8,20325278.810408894
794,80147899.79521547
2,1, 7,21, 0,17,50.00,60.00,SummerDesignDay
8,20325278.810408894
794,79002357.39833397
2,1, 7,21, 0,18, 0.00,10.00,SummerDesignDay
8,20325278.810408894
794,69401073.46749982
2,1, 7,21, 0,18,10.00,20.00,SummerDesignDay
8,20325278.810408894
794,66722732.311089456
2,1, 7,21, 0,18,20.00,30.00,SummerDesignDay
8,20325278.810408894
794,64655720.66075523
2,1, 7,21, 0,18,30.00,40.00,SummerDesignDay
8,20325278.810408894
794,62835463.28119439
2,1, 7,21, 0,18,40.00,50.00,SummerDesignDay
8,20325278.810408894
794,61210796.972598955
2,1, 7,21, 0,18,50.00,60.00,SummerDesignDay
8,20325278.810408894
794,59649216.90381954
2,1, 7,21, 0,19, 0.00,10.00,SummerDesignDay
8,20325278.810408894
794,50315594.60363202
2,1, 7,21, 0,19,10.00,20.00,SummerDesignDay
8,20325278.810408894
794,47690446.90188266
2,1, 7,21, 0,19,20.00,30.00,SummerDesignDay
8,20325278.810408894
794,45592322.17490557
2,1, 7,21, 0,19,30.00,40.00,SummerDesignDay
8,20325278.810408894
794,43644979.87986823
2,1, 7,21, 0,19,40.00,50.00,SummerDesignDay
8,20325278.810408894
794,41810585.871069714
2,1, 7,21, 0,19,50.00,60.00,SummerDesignDay
8,20325278.810408894
794,40044002.70680654
2,1, 7,21, 0,20, 0.00,10.00,SummerDesignDay
8,13550185.873605939
794,28776313.795611225
2,1, 7,21, 0,20,10.00,20.00,SummerDesignDay
8,13550185.873605939
794,26062059.547937296
2,1, 7,21, 0,20,20.00,30.00,SummerDesignDay
8,13550185.873605939
794,23914702.36942856
2,1, 7,21, 0,20,30.00,40.00,SummerDesignDay
8,13550185.873605939
794,21894938.56898191
2,1, 7,21, 0,20,40.00,50.00,SummerDesignDay
8,13550185.873605939
794,19953010.196930125
2,1, 7,21, 0,20,50.00,60.00,SummerDesignDay
8,13550185.873605939
794,17959986.050873622
2,1, 7,21, 0,21, 0.00,10.00,SummerDesignDay
8,11291821.561338281
794,6703795.240264453
2,1, 7,21, 0,21,10.00,20.00,SummerDesignDay
8,11291821.561338281
794,3952428.9266056586
2,1, 7,21, 0,21,20.00,30.00,SummerDesignDay
8,11291821.561338281
794,2861822.8594180127
2,1, 7,21, 0,21,30.00,40.00,SummerDesignDay
8,11291821.561338281
794,2311386.337214779
2,1, 7,21, 0,21,40.00,50.00,SummerDesignDay
8,11291821.561338281
794,1973858.105717341
2,1, 7,21, 0,21,50.00,60.00,SummerDesignDay
8,11291821.561338281
794,1728075.8078306145
2,1, 7,21, 0,22, 0.00,10.00,SummerDesignDay
8,1129182.1561338278
794,0.0
2,1, 7,21, 0,22,10.00,20.00,SummerDesignDay
8,1129182.1561338278
794,0.0
2,1, 7,21, 0,22,20.00,30.00,SummerDesignDay
8,1129182.1561338278
794,0.0
2,1, 7,21, 0,22,30.00,40.00,SummerDesignDay
8,1129182.1561338278
794,0.0
2,1, 7,21, 0,22,40.00,50.00,SummerDesignDay
8,1129182.1561338278
794,0.0
2,1, 7,21, 0,22,50.00,60.00,SummerDesignDay
8,1129182.1561338278
794,0.0
2,1, 7,21, 0,23, 0.00,10.00,SummerDesignDay
8,1129182.1561338278
794,0.0
2,1, 7,21, 0,23,10.00,20.00,SummerDesignDay
8,1129182.1561338278
794,0.0
2,1, 7,21, 0,23,20.00,30.00,SummerDesignDay
8,1129182.1561338278
794,0.0
2,1, 7,21, 0,23,30.00,40.00,SummerDesignDay
8,1129182.1561338278
794,0.0
2,1, 7,21, 0,23,40.00,50.00,SummerDesignDay
8,1129182.1561338278
794,0.0
2,1, 7,21, 0,23,50.00,60.00,SummerDesignDay
8,1129182.1561338278
794,0.0
2,1, 7,21, 0,24, 0.00,10.00,SummerDesignDay
8,1129182.1561338278
794,0.0
2,1, 7,21, 0,24,10.00,20.00,SummerDesignDay
8,1129182.1561338278
794,0.0
2,1, 7,21, 0,24,20.00,30.00,SummerDesignDay
8,1129182.1561338278
794,0.0
2,1, 7,21, 0,24,30.00,40.00,SummerDesignDay
8,1129182.1561338278
794,0.0
2,1, 7,21, 0,24,40.00,50.00,SummerDesignDay
8,1129182.1561338278
794,0.0
2,1, 7,21, 0,24,50.00,60.00,SummerDesignDay
8,1129182.1561338278
794,0.0
1,CALGARY INTL AP ANN HTG 99.6% CONDNS DB HVAC Sizing Pass 1,  51.11,-114.02,  -7.00,1084.10
2,1, 1,21, 0, 1, 0.00,10.00,WinterDesignDay
8,1129182.1561338278
794,0.0
2,1, 1,21, 0, 1,10.00,20.00,WinterDesignDay
8,1129182.1561338278
794,0.0
2,1, 1,21, 0, 1,20.00,30.00,WinterDesignDay
8,1129182.1561338278
794,0.0
2,1, 1,21, 0, 1,30.00,40.00,WinterDesignDay
8,1129182.1561338278
794,0.0
2,1, 1,21, 0, 1,40.00,50.00,WinterDesignDay
8,1129182.1561338278
794,0.0
2,1, 1,21, 0, 1,50.00,60.00,WinterDesignDay
8,1129182.1561338278
794,0.0
2,1, 1,21, 0, 2, 0.00,10.00,WinterDesignDay
8,1129182.1561338278
794,0.0
2,1, 1,21, 0, 2,10.00,20.00,WinterDesignDay
8,1129182.1561338278
794,0.0
2,1, 1,21, 0, 2,20.00,30.00,WinterDesignDay
8,1129182.1561338278
794,0.0
2,1, 1,21, 0, 2,30.00,40.00,WinterDesignDay
8,1129182.1561338278
794,0.0
2,1, 1,21, 0, 2,40.00,50.00,WinterDesignDay
8,1129182.1561338278
794,0.0
2,1, 1,21, 0, 2,50.00,60.00,WinterDesignDay
8,1129182.1561338278
794,0.0
2,1, 1,21, 0, 3, 0.00,10.00,WinterDesignDay
8,1129182.1561338278
794,0.0
2,1, 1,21, 0, 3,10.00,20.00,WinterDesignDay
8,1129182.1561338278
794,0.0
2,1, 1,21, 0, 3,20.00,30.00,WinterDesignDay
8,1129182.1561338278
794,0.0
2,1, 1,21, 0, 3,30.00,40.00,WinterDesignDay
8,1129182.1561338278
794,0.0
2,1, 1,21, 0, 3,40.00,50.00,WinterDesignDay
8,1129182.1561338278
794,0.0
2,1, 1,21, 0, 3,50.00,60.00,WinterDesignDay
8,1129182.1561338278
794,0.0
2,1, 1,21, 0, 4, 0.00,10.00,WinterDesignDay
8,1129182.1561338278
794,0.0
2,1, 1,21, 0, 4,10.00,20.00,WinterDesignDay
8,1129182.1561338278
794,0.0
2,1, 1,21, 0, 4,20.00,30.00,WinterDesignDay
8,1129182.1561338278
794,0.0
2,1, 1,21, 0, 4,30.00,40.00,WinterDesignDay
8,1129182.1561338278
794,0.0
2,1, 1,21, 0, 4,40.00,50.00,WinterDesignDay
8,1129182.1561338278
794,0.0
2,1, 1,21, 0, 4,50.00,60.00,WinterDesignDay
8,1129182.1561338278
794,0.0
2,1, 1,21, 0, 5, 0.00,10.00,WinterDesignDay
8,1129182.1561338278
794,0.0
2,1, 1,21, 0, 5,10.00,20.00,WinterDesignDay
8,1129182.1561338278
794,0.0
2,1, 1,21, 0, 5,20.00,30.00,WinterDesignDay
8,1129182.1561338278
794,0.0
2,1, 1,21, 0, 5,30.00,40.00,WinterDesignDay
8,1129182.1561338278
794,0.0
2,1, 1,21, 0, 5,40.00,50.00,WinterDesignDay
8,1129182.1561338278
794,0.0
2,1, 1,21, 0, 5,50.00,60.00,WinterDesignDay
8,1129182.1561338278
794,0.0
2,1, 1,21, 0, 6, 0.00,10.00,WinterDesignDay
8,1129182.1561338278
794,0.0
2,1, 1,21, 0, 6,10.00,20.00,WinterDesignDay
8,1129182.1561338278
794,0.0
2,1, 1,21, 0, 6,20.00,30.00,WinterDesignDay
8,1129182.1561338278
794,0.0
2,1, 1,21, 0, 6,30.00,40.00,WinterDesignDay
8,1129182.1561338278
794,0.0
2,1, 1,21, 0, 6,40.00,50.00,WinterDesignDay
8,1129182.1561338278
794,0.0
2,1, 1,21, 0, 6,50.00,60.00,WinterDesignDay
8,1129182.1561338278
794,0.0
2,1, 1,21, 0, 7, 0.00,10.00,WinterDesignDay
8,1129182.1561338278
794,0.0
2,1, 1,21, 0, 7,10.00,20.00,WinterDesignDay
8,1129182.1561338278
794,0.0
2,1, 1,21, 0, 7,20.00,30.00,WinterDesignDay
8,1129182.1561338278
794,0.0
2,1, 1,21, 0, 7,30.00,40.00,WinterDesignDay
8,1129182.1561338278
794,0.0
2,1, 1,21, 0, 7,40.00,50.00,WinterDesignDay
8,1129182.1561338278
794,0.0
2,1, 1,21, 0, 7,50.00,60.00,WinterDesignDay
8,1129182.1561338278
794,0.0
2,1, 1,21, 0, 8, 0.00,10.00,WinterDesignDay
8,1129182.1561338278
794,0.0
2,1, 1,21, 0, 8,10.00,20.00,WinterDesignDay
8,1129182.1561338278
794,0.0
2,1, 1,21, 0, 8,20.00,30.00,WinterDesignDay
8,1129182.1561338278
794,0.0
2,1, 1,21, 0, 8,30.00,40.00,WinterDesignDay
8,1129182.1561338278
794,0.0
2,1, 1,21, 0, 8,40.00,50.00,WinterDesignDay
8,1129182.1561338278
794,0.0
2,1, 1,21, 0, 8,50.00,60.00,WinterDesignDay
8,1129182.1561338278
794,0.0
2,1, 1,21, 0, 9, 0.00,10.00,WinterDesignDay
8,11291821.561338281
794,0.0
2,1, 1,21, 0, 9,10.00,20.00,WinterDesignDay
8,11291821.561338281
794,0.0
2,1, 1,21, 0, 9,20.00,30.00,WinterDesignDay
8,11291821.561338281
794,0.0
2,1, 1,21, 0, 9,30.00,40.00,WinterDesignDay
8,11291821.561338281
794,0.0
2,1, 1,21, 0, 9,40.00,50.00,WinterDesignDay
8,11291821.561338281
794,0.0
2,1, 1,21, 0, 9,50.00,60.00,WinterDesignDay
8,11291821.561338281
794,0.0
2,1, 1,21, 0,10, 0.00,10.00,WinterDesignDay
8,20325278.810408894
794,0.0
2,1, 1,21, 0,10,10.00,20.00,WinterDesignDay
8,20325278.810408894
794,0.0
2,1, 1,21, 0,10,20.00,30.00,WinterDesignDay
8,20325278.810408894
794,0.0
2,1, 1,21, 0,10,30.00,40.00,WinterDesignDay
8,20325278.810408894
794,0.0
2,1, 1,21, 0,10,40.00,50.00,WinterDesignDay
8,20325278.810408894
794,0.0
2,1, 1,21, 0,10,50.00,60.00,WinterDesignDay
8,20325278.810408894
794,0.0
2,1, 1,21, 0,11, 0.00,10.00,WinterDesignDay
8,20325278.810408894
794,0.0
2,1, 1,21, 0,11,10.00,20.00,WinterDesignDay
8,20325278.810408894
794,0.0
2,1, 1,21, 0,11,20.00,30.00,WinterDesignDay
8,20325278.810408894
794,0.0
2,1, 1,21, 0,11,30.00,40.00,WinterDesignDay
8,20325278.810408894
794,0.0
2,1, 1,21, 0,11,40.00,50.00,WinterDesignDay
8,20325278.810408894
794,0.0
2,1, 1,21, 0,11,50.00,60.00,WinterDesignDay
8,20325278.810408894
794,0.0
2,1, 1,21, 0,12, 0.00,10.00,WinterDesignDay
8,20325278.810408894
794,0.0
2,1, 1,21, 0,12,10.00,20.00,WinterDesignDay
8,20325278.810408894
794,0.0
2,1, 1,21, 0,12,20.00,30.00,WinterDesignDay
8,20325278.810408894
794,0.0
2,1, 1,21, 0,12,30.00,40.00,WinterDesignDay
8,20325278.810408894
794,0.0
2,1, 1,21, 0,12,40.00,50.00,WinterDesignDay
8,20325278.810408894
794,0.0
2,1, 1,21, 0,12,50.00,60.00,WinterDesignDay
8,20325278.810408894
794,0.0
2,1, 1,21, 0,13, 0.00,10.00,WinterDesignDay
8,20325278.810408894
794,0.0
2,1, 1,21, 0,13,10.00,20.00,WinterDesignDay
8,20325278.810408894
794,0.0
2,1, 1,21, 0,13,20.00,30.00,WinterDesignDay
8,20325278.810408894
794,0.0
2,1, 1,21, 0,13,30.00,40.00,WinterDesignDay
8,20325278.810408894
794,0.0