Program Version,EnergyPlus, Version 23.2.0-7636e6b3e9, YMD=2025.01.12 17:47
1,5,Environment Title[],Latitude[deg],Longitude[deg],Time Zone[],Elevation[m]
2,8,Day of Simulation[],Month[],Day of Month[],DST Indicator[1=yes 0=no],Hour[],StartMinute[],EndMinute[],DayType
3,5,Cumulative Day of Simulation[],Month[],Day of Month[],DST Indicator[1=yes 0=no],DayType  ! When Daily Report Variables Requested
4,2,Cumulative Days of Simulation[],Month[]  ! When Monthly Report Variables Requested
5,1,Cumulative Days of Simulation[] ! When Run Period Report Variables Requested
6,1,Calendar Year of Simulation[] ! When Annual Report Variables Requested
9,1,Electricity:Facility [J] !TimeStep
End of Data Dictionary
1,RUN PERIOD 1,  51.11,-114.02,  -7.00,1084.10
2,1, 1, 1, 0, 1, 0.00,10.00,Sunday
9,21066617.083850883
2,1, 1, 1, 0, 1,10.00,20.00,Sunday
9,22856212.38210374
2,1, 1, 1, 0, 1,20.00,30.00,Sunday
9,24152703.778658297
2,1, 1, 1, 0, 1,30.00,40.00,Sunday
9,25443420.682350315
2,1, 1, 1, 0, 1,40.00,50.00,Sunday
9,27150866.145110954
2,1, 1, 1, 0, 1,50.00,60.00,Sunday
9,27941802.446839355
2,1, 1, 1, 0, 2, 0.00,10.00,Sunday
9,30901626.707382735
2,1, 1, 1, 0, 2,10.00,20.00,Sunday
9,32089126.281144317
2,1, 1, 1, 0, 2,20.00,30.00,Sunday
9,32946731.495848786
2,1, 1, 1, 0, 2,30.00,40.00,Sunday
9,34159996.72772473
2,1, 1, 1, 0, 2,40.00,50.00,Sunday
9,34412444.14452116
2,1, 1, 1, 0, 2,50.00,60.00,Sunday
9,35049723.71070335
2,1, 1, 1, 0, 3, 0.00,10.00,Sunday
9,35879209.13811298
2,1, 1, 1, 0, 3,10.00,20.00,Sunday
9,36563253.438505225
2,1, 1, 1, 0, 3,20.00,30.00,Sunday
9,36232990.19309117
2,1, 1, 1, 0, 3,30.00,40.00,Sunday
9,36320964.8707005
2,1, 1, 1, 0, 3,40.00,50.00,Sunday
9,36379661.36389825
2,1, 1, 1, 0, 3,50.00,60.00,Sunday
9,36415923.48025238
2,1, 1, 1, 0, 4, 0.00,10.00,Sunday
9,35872897.80999337
2,1, 1, 1, 0, 4,10.00,20.00,Sunday
9,34391786.456586376
2,1, 1, 1, 0, 4,20.00,30.00,Sunday
9,33349366.409420718
2,1, 1, 1, 0, 4,30.00,40.00,Sunday
9,32306043.90067289
2,1, 1, 1, 0, 4,40.00,50.00,Sunday
9,31575709.27458129
2,1, 1, 1, 0, 4,50.00,60.00,Sunday
9,30367590.092924718
2,1, 1, 1, 0, 5, 0.00,10.00,Sunday
9,30346716.945775453
2,1, 1, 1, 0, 5,10.00,20.00,Sunday
9,30662975.295131773
2,1, 1, 1, 0, 5,20.00,30.00,Sunday
9,31007852.500953086
2,1, 1, 1, 0, 5,30.00,40.00,Sunday
9,31805044.64817225
2,1, 1, 1, 0, 5,40.00,50.00,Sunday
9,31703754.868743252
2,1, 1, 1, 0, 5,50.00,60.00,Sunday
9,32051634.020197812
2,1, 1, 1, 0, 6, 0.00,10.00,Sunday
9,32561462.93244143
2,1, 1, 1, 0, 6,10.00,20.00,Sunday
9,33180787.60586315
2,1, 1, 1, 0, 6,20.00,30.00,Sunday
9,34254651.29671586
2,1, 1, 1, 0, 6,30.00,40.00,Sunday
9,34438516.468894154
2,1, 1, 1, 0, 6,40.00,50.00,Sunday
9,35061465.3984734
2,1, 1, 1, 0, 6,50.00,60.00,Sunday
9,35678886.94882625
2,1, 1, 1, 0, 7, 0.00,10.00,Sunday
9,34926560.0940786
2,1, 1, 1, 0, 7,10.00,20.00,Sunday
9,33292650.505054105
2,1, 1, 1, 0, 7,20.00,30.00,Sunday
9,32122874.414491694
2,1, 1, 1, 0, 7,30.00,40.00,Sunday
9,30969671.384954862
2,1, 1, 1, 0, 7,40.00,50.00,Sunday
9,29835080.546982165
2,1, 1, 1, 0, 7,50.00,60.00,Sunday
9,29177796.872668274
2,1, 1, 1, 0, 8, 0.00,10.00,Sunday
9,29091218.587297905
2,1, 1, 1, 0, 8,10.00,20.00,Sunday
9,29690988.81524907
2,1, 1, 1, 0, 8,20.00,30.00,Sunday
9,30281331.952729028
2,1, 1, 1, 0, 8,30.00,40.00,Sunday
9,31111340.714403804
2,1, 1, 1, 0, 8,40.00,50.00,Sunday
9,31485198.0477143
2,1, 1, 1, 0, 8,50.00,60.00,Sunday
9,31760555.79018748
2,1, 1, 1, 0, 9, 0.00,10.00,Sunday
9,35866589.842575766
2,1, 1, 1, 0, 9,10.00,20.00,Sunday
9,35216263.20015106
2,1, 1, 1, 0, 9,20.00,30.00,Sunday
9,34001953.19236207
2,1, 1, 1, 0, 9,30.00,40.00,Sunday
9,33814648.56136697
2,1, 1, 1, 0, 9,40.00,50.00,Sunday
9,32363572.897182178
2,1, 1, 1, 0, 9,50.00,60.00,Sunday
9,31503953.431276258
2,1, 1, 1, 0,10, 0.00,10.00,Sunday
9,118639403.30353175
2,1, 1, 1, 0,10,10.00,20.00,Sunday
9,87799069.23055883
2,1, 1, 1, 0,10,20.00,30.00,Sunday
9,93942700.13746113
2,1, 1, 1, 0,10,30.00,40.00,Sunday
9,92205966.74129586
2,1, 1, 1, 0,10,40.00,50.00,Sunday
9,93726576.74713269
2,1, 1, 1, 0,10,50.00,60.00,Sunday
9,84610116.16651042
2,1, 1, 1, 0,11, 0.00,10.00,Sunday
9,117012250.57766823
2,1, 1, 1, 0,11,10.00,20.00,Sunday
9,77581998.53695872
2,1, 1, 1, 0,11,20.00,30.00,Sunday
9,93158657.86740038
2,1, 1, 1, 0,11,30.00,40.00,Sunday
9,88110981.91617616
2,1, 1, 1, 0,11,40.00,50.00,Sunday
9,94763200.57465474
2,1, 1, 1, 0,11,50.00,60.00,Sunday
9,77229302.40989926
2,1, 1, 1, 0,12, 0.00,10.00,Sunday
9,79167912.35182993
2,1, 1, 1, 0,12,10.00,20.00,Sunday
9,68689014.8606646
2,1, 1, 1, 0,12,20.00,30.00,Sunday
9,77830590.14667818
2,1, 1, 1, 0,12,30.00,40.00,Sunday
9,65754374.625965305
2,1, 1, 1, 0,12,40.00,50.00,Sunday
9,81241512.0455856
2,1, 1, 1, 0,12,50.00,60.00,Sunday
9,64438424.405150026
2,1, 1, 1, 0,13, 0.00,10.00,Sunday
9,76401073.44613454
2,1, 1, 1, 0,13,10.00,20.00,Sunday
9,62189337.243250035
2,1, 1, 1, 0,13,20.00,30.00,Sunday
9,71166248.95750561
2,1, 1, 1, 0,13,30.00,40.00,Sunday
9,62789033.04828768
2,1, 1, 1, 0,13,40.00,50.00,Sunday
9,66577885.96206155
2,1, 1, 1, 0,13,50.00,60.00,Sunday
9,62857648.34393787
2,1, 1, 1, 0,14, 0.00,10.00,Sunday
9,60266941.67324313
2,1, 1, 1, 0,14,10.00,20.00,Sunday
9,58588443.32034012
2,1, 1, 1, 0,14,20.00,30.00,Sunday
9,57436960.31174497
2,1, 1, 1, 0,14,30.00,40.00,Sunday
9,57313577.79396989
2,1, 1, 1, 0,14,40.00,50.00,Sunday
9,56325419.79298325
2,1, 1, 1, 0,14,50.00,60.00,Sunday
9,56393501.13455219
2,1, 1, 1, 0,15, 0.00,10.00,Sunday
9,54804016.308329985
2,1, 1, 1, 0,15,10.00,20.00,Sunday
9,54489115.267512746
2,1, 1, 1, 0,15,20.00,30.00,Sunday
9,53930023.1426405
2,1, 1, 1, 0,15,30.00,40.00,Sunday
9,53715631.334323466
2,1, 1, 1, 0,15,40.00,50.00,Sunday
9,53562887.69066468
2,1, 1, 1, 0,15,50.00,60.00,Sunday
9,53460287.95821864
2,1, 1, 1, 0,16, 0.00,10.00,Sunday
9,58855567.70558139
2,1, 1, 1, 0,16,10.00,20.00,Sunday
9,60547847.307018265
2,1, 1, 1, 0,16,20.00,30.00,Sunday
9,62332154.276707776
2,1, 1, 1, 0,16,30.00,40.00,Sunday
9,63408582.48337771
2,1, 1, 1, 0,16,40.00,50.00,Sunday
9,64628976.023220964
2,1, 1, 1, 0,16,50.00,60.00,Sunday
9,65440023.763931796
2,1, 1, 1, 0,17, 0.00,10.00,Sunday
9,69321184.3017749
2,1, 1, 1, 0,17,10.00,20.00,Sunday
9,68682895.66524406
2,1, 1, 1, 0,17,20.00,30.00,Sunday
9,69950449.94101113
2,1, 1, 1, 0,17,30.00,40.00,Sunday
9,68518643.5737091
2,1, 1, 1, 0,17,40.00,50.00,Sunday
9,69780528.21718214
2,1, 1, 1, 0,17,50.00,60.00,Sunday
9,67854790.01968217
2,1, 1, 1, 0,18, 0.00,10.00,Sunday
9,72945502.14226845
2,1, 1, 1, 0,18,10.00,20.00,Sunday
9,70928573.3836327
2,1, 1, 1, 0,18,20.00,30.00,Sunday
9,74847307.64392436
2,1, 1, 1, 0,18,30.00,40.00,Sunday
9,71550919.91942558
2,1, 1, 1, 0,18,40.00,50.00,Sunday
9,77218054.2956567
2,1, 1, 1, 0,18,50.00,60.00,Sunday
9,72659948.10511574
2,1, 1, 1, 0,19, 0.00,10.00,Sunday
9,76735438.37424408
2,1, 1, 1, 0,19,10.00,20.00,Sunday
9,79285378.95884837
2,1, 1, 1, 0,19,20.00,30.00,Sunday
9,75228531.58714561
2,1, 1, 1, 0,19,30.00,40.00,Sunday
9,80917140.86294982
2,1, 1, 1, 0,19,40.00,50.00,Sunday
9,74954678.34472328
2,1, 1, 1, 0,19,50.00,60.00,Sunday
9,82688162.4057539
2,1, 1, 1, 0,20, 0.00,10.00,Sunday
9,1635863.129996477
2,1, 1, 1, 0,20,10.00,20.00,Sunday
9,1173142.8628681728
2,1, 1, 1, 0,20,20.00,30.00,Sunday
9,1173142.8628681728
2,1, 1, 1, 0,20,30.00,40.00,Sunday
9,1173142.8628681728
2,1, 1, 1, 0,20,40.00,50.00,Sunday
9,1403919.1577193283
2,1, 1, 1, 0,20,50.00,60.00,Sunday
9,2196611.2502133567
2,1, 1, 1, 0,21, 0.00,10.00,Sunday
9,3540763.220616212
2,1, 1, 1, 0,21,10.00,20.00,Sunday
9,4614224.591663255
2,1, 1, 1, 0,21,20.00,30.00,Sunday
9,4970748.220409441
2,1, 1, 1, 0,21,30.00,40.00,Sunday
9,6674722.117586406
2,1, 1, 1, 0,21,40.00,50.00,Sunday
9,9346080.243689854
2,1, 1, 1, 0,21,50.00,60.00,Sunday
9,8491157.043151159
2,1, 1, 1, 0,22, 0.00,10.00,Sunday
9,13006022.089294247
2,1, 1, 1, 0,22,10.00,20.00,Sunday
9,14750994.792085772
2,1, 1, 1, 0,22,20.00,30.00,Sunday
9,16442116.189870797
2,1, 1, 1, 0,22,30.00,40.00,Sunday
9,17142947.012502696
2,1, 1, 1, 0,22,40.00,50.00,Sunday
9,18177685.57418895
2,1, 1, 1, 0,22,50.00,60.00,Sunday
9,19132386.564355712
2,1, 1, 1, 0,23, 0.00,10.00,Sunday
9,21621550.583015293
2,1, 1, 1, 0,23,10.00,20.00,Sunday
9,21647726.974435203
2,1, 1, 1, 0,23,20.00,30.00,Sunday
9,21826959.39624107
2,1, 1, 1, 0,23,30.00,40.00,Sunday
9,21940757.86801779
2,1, 1, 1, 0,23,40.00,50.00,Sunday
9,21986043.66984817
2,1, 1, 1, 0,23,50.00,60.00,Sunday
9,22429911.284893468
2,1, 1, 1, 0,24, 0.00,10.00,Sunday
9,23082525.32343324
2,1, 1, 1, 0,24,10.00,20.00,Sunday
9,23505942.51335429
2,1, 1, 1, 0,24,20.00,30.00,Sunday
9,23804754.48356324
2,1, 1, 1, 0,24,30.00,40.00,Sunday
9,24253961.327401564
2,1, 1, 1, 0,24,40.00,50.00,Sunday
9,24575067.03108307
2,1, 1, 1, 0,24,50.00,60.00,Sunday
9,24528337.024491157
2,2, 1, 2, 0, 1, 0.00,10.00,Monday
9,25301032.486966904
2,2, 1, 2, 0, 1,10.00,20.00,Monday
9,25733146.576739702
2,2, 1, 2, 0, 1,20.00,30.00,Monday
9,26501745.213597596
2,2, 1, 2, 0, 1,30.00,40.00,Monday
9,26294499.095643688
2,2, 1, 2, 0, 1,40.00,50.00,Monday
9,26469598.51634075
2,2, 1, 2, 0, 1,50.00,60.00,Monday
9,26582377.170445558
2,2, 1, 2, 0, 2, 0.00,10.00,Monday
9,26212576.089496527
2,2, 1, 2, 0, 2,10.00,20.00,Monday
9,26499121.2822827
2,2, 1, 2, 0, 2,20.00,30.00,Monday
9,25929649.57113635
2,2, 1, 2, 0, 2,30.00,40.00,Monday
9,25811029.028644178
2,2, 1, 2, 0, 2,40.00,50.00,Monday
9,25697918.762618087
2,2, 1, 2, 0, 2,50.00,60.00,Monday
9,26040709.742805153
2,2, 1, 2, 0, 3, 0.00,10.00,Monday
9,25240616.666613903
2,2, 1, 2, 0, 3,10.00,20.00,Monday
9,25062862.6356257
2,2, 1, 2, 0, 3,20.00,30.00,Monday
9,24919483.24803334
2,2, 1, 2, 0, 3,30.00,40.00,Monday
9,24788139.51058593
2,2, 1, 2, 0, 3,40.00,50.00,Monday
9,25113585.281577803
2,2, 1, 2, 0, 3,50.00,60.00,Monday
9,24547627.66107179
2,2, 1, 2, 0, 4, 0.00,10.00,Monday
9,24327154.39125668
2,2, 1, 2, 0, 4,10.00,20.00,Monday
9,24059969.046029177
2,2, 1, 2, 0, 4,20.00,30.00,Monday
9,23949635.88688563
2,2, 1, 2, 0, 4,30.00,40.00,Monday
9,23813085.630710106
2,2, 1, 2, 0, 4,40.00,50.00,Monday
9,23245055.89317574
2,2, 1, 2, 0, 4,50.00,60.00,Monday
9,22981585.208288703
2,2, 1, 2, 0, 5, 0.00,10.00,Monday
9,23422677.24875999
2,2, 1, 2, 0, 5,10.00,20.00,Monday
9,24336337.554125365
2,2, 1, 2, 0, 5,20.00,30.00,Monday
9,24353841.39460061
2,2, 1, 2, 0, 5,30.00,40.00,Monday
9,24821873.234630704
2,2, 1, 2, 0, 5,40.00,50.00,Monday
9,25292908.08313361
2,2, 1, 2, 0, 5,50.00,60.00,Monday
9,25766539.634354208
2,2, 1, 2, 0, 6, 0.00,10.00,Monday
9,1624701.452761262
2,2, 1, 2, 0, 6,10.00,20.00,Monday
9,4172284.0681679547
2,2, 1, 2, 0, 6,20.00,30.00,Monday
9,5107147.860641517
2,2, 1, 2, 0, 6,30.00,40.00,Monday
9,5763079.617199468
2,2, 1, 2, 0, 6,40.00,50.00,Monday
9,15646352.000218816
2,2, 1, 2, 0, 6,50.00,60.00,Monday
9,12652384.992632234
2,2, 1, 2, 0, 7, 0.00,10.00,Monday
9,14684680.99999694
2,2, 1, 2, 0, 7,10.00,20.00,Monday
9,64033821.819147676
2,2, 1, 2, 0, 7,20.00,30.00,Monday
9,55759306.48198839
2,2, 1, 2, 0, 7,30.00,40.00,Monday
9,29584924.06767539
2,2, 1, 2, 0, 7,40.00,50.00,Monday
9,24897634.359686043
2,2, 1, 2, 0, 7,50.00,60.00,Monday
9,28550601.047872875
2,2, 1, 2, 0, 8, 0.00,10.00,Monday
9,67048332.32900832
2,2, 1, 2, 0, 8,10.00,20.00,Monday
9,37570482.532023214
2,2, 1, 2, 0, 8,20.00,30.00,Monday
9,46121619.58598802
2,2, 1, 2, 0, 8,30.00,40.00,Monday
9,35457651.736119404
2,2, 1, 2, 0, 8,40.00,50.00,Monday
9,34553627.385514095
2,2, 1, 2, 0, 8,50.00,60.00,Monday
9,33494778.939380478
2,2, 1, 2, 0, 9, 0.00,10.00,Monday
9,83822856.69443569
2,2, 1, 2, 0, 9,10.00,20.00,Monday
9,33338212.43729344
2,2, 1, 2, 0, 9,20.00,30.00,Monday
9,49918920.572846465
2,2, 1, 2, 0, 9,30.00,40.00,Monday
9,52456425.68310337
2,2, 1, 2, 0, 9,40.00,50.00,Monday
9,47535783.16243649
2,2, 1, 2, 0, 9,50.00,60.00,Monday
9,48716754.887724005
2,2, 1, 2, 0,10, 0.00,10.00,Monday
9,98657318.47248422
2,2, 1, 2, 0,10,10.00,20.00,Monday
9,90260528.83114149
2,2, 1, 2, 0,10,20.00,30.00,Monday
9,94374476.90832226
2,2, 1, 2, 0,10,30.00,40.00,Monday
9,86651552.07359158
2,2, 1, 2, 0,10,40.00,50.00,Monday
9,91952400.4649219
2,2, 1, 2, 0,10,50.00,60.00,Monday
9,83407036.31866992
2,2, 1, 2, 0,11, 0.00,10.00,Monday
9,83017105.67539635
2,2, 1, 2, 0,11,10.00,20.00,Monday
9,78022647.22029582
2,2, 1, 2, 0,11,20.00,30.00,Monday
9,80602782.95028901
2,2, 1, 2, 0,11,30.00,40.00,Monday
9,75945314.7471171
2,2, 1, 2, 0,11,40.00,50.00,Monday
9,79918710.72189347
2,2, 1, 2, 0,11,50.00,60.00,Monday
9,74677517.2902363
2,2, 1, 2, 0,12, 0.00,10.00,Monday
9,74873165.21762988
2,2, 1, 2, 0,12,10.00,20.00,Monday
9,71083380.8867883
2,2, 1, 2, 0,12,20.00,30.00,Monday
9,70991734.79778945
2,2, 1, 2, 0,12,30.00,40.00,Monday
9,67721590.074943
2,2, 1, 2, 0,12,40.00,50.00,Monday
9,67994698.35275115
2,2, 1, 2, 0,12,50.00,60.00,Monday
9,64224570.83142439
2,2, 1, 2, 0,13, 0.00,10.00,Monday
9,64850967.20443888
2,2, 1, 2, 0,13,10.00,20.00,Monday
9,64075191.07366492
2,2, 1, 2, 0,13,20.00,30.00,Monday
9,64801321.18347218
2,2, 1, 2, 0,13,30.00,40.00,Monday
9,64872317.81611831
2,2, 1, 2, 0,13,40.00,50.00,Monday
9,65999723.71761931
2,2, 1, 2, 0,13,50.00,60.00,Monday
9,66160244.840476215
2,2, 1, 2, 0,14, 0.00,10.00,Monday
9,65856315.58007396
2,2, 1, 2, 0,14,10.00,20.00,Monday
9,64927350.2688023
2,2, 1, 2, 0,14,20.00,30.00,Monday
9,64904829.04207015
2,2, 1, 2, 0,14,30.00,40.00,Monday
9,62547180.0809863
2,2, 1, 2, 0,14,40.00,50.00,Monday
9,61721565.5233332
2,2, 1, 2, 0,14,50.00,60.00,Monday
9,59316652.11813723
2,2, 1, 2, 0,15, 0.00,10.00,Monday
9,50499295.94446371
2,2, 1, 2, 0,15,10.00,20.00,Monday
9,46326716.438783996
2,2, 1, 2, 0,15,20.00,30.00,Monday
9,42857434.659222096
2,2, 1, 2, 0,15,30.00,40.00,Monday
9,39981902.81322546
2,2, 1, 2, 0,15,40.00,50.00,Monday
9,37388461.54740212
2,2, 1, 2, 0,15,50.00,60.00,Monday
9,35442189.894652486
2,2, 1, 2, 0,16, 0.00,10.00,Monday
9,34400120.31634581
2,2, 1, 2, 0,16,10.00,20.00,Monday
9,34400120.31634581
2,2, 1, 2, 0,16,20.00,30.00,Monday
9,34400120.31634581
2,2, 1, 2, 0,16,30.00,40.00,Monday
9,34400120.31634581
2,2, 1, 2, 0,16,40.00,50.00,Monday
9,34400120.31634581
2,2, 1, 2, 0,16,50.00,60.00,Monday
9,34680168.14399164
2,2, 1, 2, 0,17, 0.00,10.00,Monday
9,35161273.89736129
2,2, 1, 2, 0,17,10.00,20.00,Monday
9,38379179.089930624
2,2, 1, 2, 0,17,20.00,30.00,Monday
9,38749750.027566694
2,2, 1, 2, 0,17,30.00,40.00,Monday
9,40528123.479393005
2,2, 1, 2, 0,17,40.00,50.00,Monday
9,41462795.91877294
2,2, 1, 2, 0,17,50.00,60.00,Monday
9,41846623.73996217
2,2, 1, 2, 0,18, 0.00,10.00,Monday
9,49725670.51732082
2,2, 1, 2, 0,18,10.00,20.00,Monday
9,50659945.98629895
2,2, 1, 2, 0,18,20.00,30.00,Monday
9,51208662.89305512
2,2, 1, 2, 0,18,30.00,40.00,Monday
9,50545871.7483962
2,2, 1, 2, 0,18,40.00,50.00,Monday
9,51025399.8193882
2,2, 1, 2, 0,18,50.00,60.00,Monday
9,49993606.85174092
2,2, 1, 2, 0,19, 0.00,10.00,Monday
9,55116702.81125031
2,2, 1, 2, 0,19,10.00,20.00,Monday
9,55887938.798875056
2,2, 1, 2, 0,19,20.00,30.00,Monday
9,59259538.76625077
2,2, 1, 2, 0,19,30.00,40.00,Monday
9,58698909.33322538
2,2, 1, 2, 0,19,40.00,50.00,Monday
9,62121553.00511891
2,2, 1, 2, 0,19,50.00,60.00,Monday
9,60955975.16279496
2,2, 1, 2, 0,20, 0.00,10.00,Monday
9,64736125.36143032
2,2, 1, 2, 0,20,10.00,20.00,Monday
9,54887391.4881503
2,2, 1, 2, 0,20,20.00,30.00,Monday
9,67224203.86263786
2,2, 1, 2, 0,20,30.00,40.00,Monday
9,51335992.35614031
2,2, 1, 2, 0,20,40.00,50.00,Monday
9,69262521.1303083
2,2, 1, 2, 0,20,50.00,60.00,Monday
9,47653298.90755432
2,2, 1, 2, 0,21, 0.00,10.00,Monday
9,59743729.96682445
2,2, 1, 2, 0,21,10.00,20.00,Monday
9,61723091.14639755
2,2, 1, 2, 0,21,20.00,30.00,Monday
9,57640922.05670947
2,2, 1, 2, 0,21,30.00,40.00,Monday
9,64335989.55522691
2,2, 1, 2, 0,21,40.00,50.00,Monday
9,56505070.90777936
2,2, 1, 2, 0,21,50.00,60.00,Monday
9,65379290.85653114
2,2, 1, 2, 0,22, 0.00,10.00,Monday
9,1173142.8628681728
2,2, 1, 2, 0,22,10.00,20.00,Monday
9,1625303.5411305567
2,2, 1, 2, 0,22,20.00,30.00,Monday
9,1173142.8628681728
2,2, 1, 2, 0,22,30.00,40.00,Monday
9,1173142.8628681728
2,2, 1, 2, 0,22,40.00,50.00,Monday
9,1710594.9079102406
2,2, 1, 2, 0,22,50.00,60.00,Monday
9,2116465.6085191607
2,2, 1, 2, 0,23, 0.00,10.00,Monday
9,6099960.384718713
2,2, 1, 2, 0,23,10.00,20.00,Monday
9,8532625.015979491
2,2, 1, 2, 0,23,20.00,30.00,Monday
9,12816819.467162082
2,2, 1, 2, 0,23,30.00,40.00,Monday
9,9650374.686396325
2,2, 1, 2, 0,23,40.00,50.00,Monday
9,11099043.10810954
2,2, 1, 2, 0,23,50.00,60.00,Monday
9,10854693.178784732
2,2, 1, 2, 0,24, 0.00,10.00,Monday
9,13157833.706586339
2,2, 1, 2, 0,24,10.00,20.00,Monday
9,13658231.231390461
2,2, 1, 2, 0,24,20.00,30.00,Monday
9,13880304.886001797
2,2, 1, 2, 0,24,30.00,40.00,Monday
9,14463926.417822422
2,2, 1, 2, 0,24,40.00,50.00,Monday
9,14059709.28871271
2,2, 1, 2, 0,24,50.00,60.00,Monday
9,14033043.155998524
2,3, 1, 3, 0, 1, 0.00,10.00,Tuesday
9,15608660.637270141
2,3, 1, 3, 0, 1,10.00,20.00,Tuesday
9,16148851.708082959
2,3, 1, 3, 0, 1,20.00,30.00,Tuesday
9,16641827.12745459
2,3, 1, 3, 0, 1,30.00,40.00,Tuesday
9,16454028.522543218
2,3, 1, 3, 0, 1,40.00,50.00,Tuesday
9,16564397.227317818
2,3, 1, 3, 0, 1,50.00,60.00,Tuesday
9,16632037.168472787
2,3, 1, 3, 0, 2, 0.00,10.00,Tuesday
9,17607241.15596091
2,3, 1, 3, 0, 2,10.00,20.00,Tuesday
9,17269514.340112712
2,3, 1, 3, 0, 2,20.00,30.00,Tuesday
9,17296551.1856494
2,3, 1, 3, 0, 2,30.00,40.00,Tuesday
9,17302012.32401901
2,3, 1, 3, 0, 2,40.00,50.00,Tuesday
9,17279260.956341196
2,3, 1, 3, 0, 2,50.00,60.00,Tuesday
9,17693877.651708327
2,3, 1, 3, 0, 3, 0.00,10.00,Tuesday
9,18869094.263355497
2,3, 1, 3, 0, 3,10.00,20.00,Tuesday
9,19925023.617709275
2,3, 1, 3, 0, 3,20.00,30.00,Tuesday
9,20931559.366032947
2,3, 1, 3, 0, 3,30.00,40.00,Tuesday
9,22392189.948641803
2,3, 1, 3, 0, 3,40.00,50.00,Tuesday
9,23083541.756883956
2,3, 1, 3, 0, 3,50.00,60.00,Tuesday
9,24207037.537335303
2,3, 1, 3, 0, 4, 0.00,10.00,Tuesday
9,24314112.354800243
2,3, 1, 3, 0, 4,10.00,20.00,Tuesday
9,23990216.692325104
2,3, 1, 3, 0, 4,20.00,30.00,Tuesday
9,24029593.746006757
2,3, 1, 3, 0, 4,30.00,40.00,Tuesday
9,23149926.662524577
2,3, 1, 3, 0, 4,40.00,50.00,Tuesday
9,22702282.15992324
2,3, 1, 3, 0, 4,50.00,60.00,Tuesday
9,22244030.476840097
2,3, 1, 3, 0, 5, 0.00,10.00,Tuesday
9,22838752.360729467
2,3, 1, 3, 0, 5,10.00,20.00,Tuesday
9,23541114.54714711
2,3, 1, 3, 0, 5,20.00,30.00,Tuesday
9,23706419.0818909
2,3, 1, 3, 0, 5,30.00,40.00,Tuesday
9,24205077.61951012
2,3, 1, 3, 0, 5,40.00,50.00,Tuesday
9,24611881.15509947
2,3, 1, 3, 0, 5,50.00,60.00,Tuesday
9,25469461.605892684
2,3, 1, 3, 0, 6, 0.00,10.00,Tuesday
9,24672219.570686243
2,3, 1, 3, 0, 6,10.00,20.00,Tuesday
9,24355605.948883306
2,3, 1, 3, 0, 6,20.00,30.00,Tuesday
9,24048516.517420065
2,3, 1, 3, 0, 6,30.00,40.00,Tuesday
9,23747198.97891435
2,3, 1, 3, 0, 6,40.00,50.00,Tuesday
9,23896958.673597932
2,3, 1, 3, 0, 6,50.00,60.00,Tuesday
9,23162687.9720405
2,3, 1, 3, 0, 7, 0.00,10.00,Tuesday
9,22957545.17686152
2,3, 1, 3, 0, 7,10.00,20.00,Tuesday
9,22777092.3833634
2,3, 1, 3, 0, 7,20.00,30.00,Tuesday
9,23019536.778860528
2,3, 1, 3, 0, 7,30.00,40.00,Tuesday
9,22346158.83559855
2,3, 1, 3, 0, 7,40.00,50.00,Tuesday
9,22069294.444584828
2,3, 1, 3, 0, 7,50.00,60.00,Tuesday
9,21757477.49943867
2,3, 1, 3, 0, 8, 0.00,10.00,Tuesday
9,70221092.30585662
2,3, 1, 3, 0, 8,10.00,20.00,Tuesday
9,17891227.026921667
2,3, 1, 3, 0, 8,20.00,30.00,Tuesday
9,34062099.87048178
2,3, 1, 3, 0, 8,30.00,40.00,Tuesday
9,44856865.783913314
2,3, 1, 3, 0, 8,40.00,50.00,Tuesday
9,35031072.738214426
2,3, 1, 3, 0, 8,50.00,60.00,Tuesday
9,34095659.404404104
2,3, 1, 3, 0, 9, 0.00,10.00,Tuesday
9,68894444.08631022
2,3, 1, 3, 0, 9,10.00,20.00,Tuesday
9,52274263.66073093
2,3, 1, 3, 0, 9,20.00,30.00,Tuesday
9,51506885.67084854
2,3, 1, 3, 0, 9,30.00,40.00,Tuesday
9,49906036.442911185
2,3, 1, 3, 0, 9,40.00,50.00,Tuesday
9,47928724.81346905
2,3, 1, 3, 0, 9,50.00,60.00,Tuesday
9,46904282.118978225
2,3, 1, 3, 0,10, 0.00,10.00,Tuesday
9,95281962.35482161
2,3, 1, 3, 0,10,10.00,20.00,Tuesday
9,101411699.60917895
2,3, 1, 3, 0,10,20.00,30.00,Tuesday
9,95354232.52452089
2,3, 1, 3, 0,10,30.00,40.00,Tuesday
9,97449830.69486165
2,3, 1, 3, 0,10,40.00,50.00,Tuesday
9,90658474.73247115
2,3, 1, 3, 0,10,50.00,60.00,Tuesday
9,94202670.08021678
2,3, 1, 3, 0,11, 0.00,10.00,Tuesday
9,82065155.26954868
2,3, 1, 3, 0,11,10.00,20.00,Tuesday
9,83901336.71894671
2,3, 1, 3, 0,11,20.00,30.00,Tuesday
9,71620392.76417972
2,3, 1, 3, 0,11,30.00,40.00,Tuesday
9,76799104.8959529
2,3, 1, 3, 0,11,40.00,50.00,Tuesday
9,65651068.55759766
2,3, 1, 3, 0,11,50.00,60.00,Tuesday
9,69515741.98508349
2,3, 1, 3, 0,12, 0.00,10.00,Tuesday
9,56138186.78403959
2,3, 1, 3, 0,12,10.00,20.00,Tuesday
9,68340865.27392095
2,3, 1, 3, 0,12,20.00,30.00,Tuesday
9,56384286.90956509
2,3, 1, 3, 0,12,30.00,40.00,Tuesday
9,67050676.21848394
2,3, 1, 3, 0,12,40.00,50.00,Tuesday
9,56091202.83898803
2,3, 1, 3, 0,12,50.00,60.00,Tuesday
9,65535650.61763224
2,3, 1, 3, 0,13, 0.00,10.00,Tuesday
9,57045174.55093476
2,3, 1, 3, 0,13,10.00,20.00,Tuesday
9,66038648.577757105
2,3, 1, 3, 0,13,20.00,30.00,Tuesday
9,57551082.15558293
2,3, 1, 3, 0,13,30.00,40.00,Tuesday
9,67106147.39050716
2,3, 1, 3, 0,13,40.00,50.00,Tuesday
9,57501898.79858228
2,3, 1, 3, 0,13,50.00,60.00,Tuesday
9,68800865.5528743
2,3, 1, 3, 0,14, 0.00,10.00,Tuesday
9,56362913.85080185
2,3, 1, 3, 0,14,10.00,20.00,Tuesday
9,67587726.79044364
2,3, 1, 3, 0,14,20.00,30.00,Tuesday
9,55742599.374288775
2,3, 1, 3, 0,14,30.00,40.00,Tuesday
9,65553248.01252558
2,3, 1, 3, 0,14,40.00,50.00,Tuesday
9,55179324.199913904
2,3, 1, 3, 0,14,50.00,60.00,Tuesday
9,62856589.21336888
2,3, 1, 3, 0,15, 0.00,10.00,Tuesday
9,55663668.0453839
2,3, 1, 3, 0,15,10.00,20.00,Tuesday
9,63577645.22571725
2,3, 1, 3, 0,15,20.00,30.00,Tuesday
9,56568668.51862038
2,3, 1, 3, 0,15,30.00,40.00,Tuesday
9,61003199.05191231
2,3, 1, 3, 0,15,40.00,50.00,Tuesday
9,61901562.801112466
2,3, 1, 3, 0,15,50.00,60.00,Tuesday
9,60764839.33671545
2,3, 1, 3, 0,16, 0.00,10.00,Tuesday
9,55282237.95247568
2,3, 1, 3, 0,16,10.00,20.00,Tuesday
9,55035596.33598482
2,3, 1, 3, 0,16,20.00,30.00,Tuesday
9,54221077.11050235
2,3, 1, 3, 0,16,30.00,40.00,Tuesday
9,53973009.64056802
2,3, 1, 3, 0,16,40.00,50.00,Tuesday
9,54401196.00417963
2,3, 1, 3, 0,16,50.00,60.00,Tuesday
9,54512699.97494731
2,3, 1, 3, 0,17, 0.00,10.00,Tuesday
9,56202095.30444789
2,3, 1, 3, 0,17,10.00,20.00,Tuesday
9,56327556.6684781
2,3, 1, 3, 0,17,20.00,30.00,Tuesday
9,57896201.02860887
2,3, 1, 3, 0,17,30.00,40.00,Tuesday
9,59230799.24432017
2,3, 1, 3, 0,17,40.00,50.00,Tuesday
9,60369671.06211761
2,3, 1, 3, 0,17,50.00,60.00,Tuesday
9,60166847.552914284
2,3, 1, 3, 0,18, 0.00,10.00,Tuesday
9,70736893.22279671
2,3, 1, 3, 0,18,10.00,20.00,Tuesday
9,64468921.46333039
2,3, 1, 3, 0,18,20.00,30.00,Tuesday
9,74843158.42359628
2,3, 1, 3, 0,18,30.00,40.00,Tuesday
9,64446466.232260235
2,3, 1, 3, 0,18,40.00,50.00,Tuesday
9,71651464.4866552
2,3, 1, 3, 0,18,50.00,60.00,Tuesday
9,72445368.50284767
2,3, 1, 3, 0,19, 0.00,10.00,Tuesday
9,75790847.54130074
2,3, 1, 3, 0,19,10.00,20.00,Tuesday
9,78449349.94091263
2,3, 1, 3, 0,19,20.00,30.00,Tuesday
9,68782877.92569484
2,3, 1, 3, 0,19,30.00,40.00,Tuesday
9,82492209.31591092
2,3, 1, 3, 0,19,40.00,50.00,Tuesday
9,65887739.57755488
2,3, 1, 3, 0,19,50.00,60.00,Tuesday
9,85679657.95661981
2,3, 1, 3, 0,20, 0.00,10.00,Tuesday
9,64564588.35344009
2,3, 1, 3, 0,20,10.00,20.00,Tuesday
9,75779276.64650363
2,3, 1, 3, 0,20,20.00,30.00,Tuesday
9,77340640.14455818
2,3, 1, 3, 0,20,30.00,40.00,Tuesday
9,79739512.30446386
2,3, 1, 3, 0,20,40.00,50.00,Tuesday
9,79285658.32022227
2,3, 1, 3, 0,20,50.00,60.00,Tuesday
9,80353631.10751393
2,3, 1, 3, 0,21, 0.00,10.00,Tuesday
9,71355797.70639588
2,3, 1, 3, 0,21,10.00,20.00,Tuesday
9,84669618.2837446
2,3, 1, 3, 0,21,20.00,30.00,Tuesday
9,70216517.12749545
2,3, 1, 3, 0,21,30.00,40.00,Tuesday
9,87946209.78427206
2,3, 1, 3, 0,21,40.00,50.00,Tuesday
9,81509402.8831136
2,3, 1, 3, 0,21,50.00,60.00,Tuesday
9,81908236.02357228
2,3, 1, 3, 0,22, 0.00,10.00,Tuesday
9,1173142.8628681728
2,3, 1, 3, 0,22,10.00,20.00,Tuesday
9,1625704.3071214436
2,3, 1, 3, 0,22,20.00,30.00,Tuesday
9,1173142.8628681728
2,3, 1, 3, 0,22,30.00,40.00,Tuesday
9,1628172.8283129246
2,3, 1, 3, 0,22,40.00,50.00,Tuesday
9,2732026.6304834606
2,3, 1, 3, 0,22,50.00,60.00,Tuesday
9,3897198.920205501
2,3, 1, 3, 0,23, 0.00,10.00,Tuesday
9,6519321.421039581
2,3, 1, 3, 0,23,10.00,20.00,Tuesday
9,16814701.33739981
2,3, 1, 3, 0,23,20.00,30.00,Tuesday
9,14233166.814625543
2,3, 1, 3, 0,23,30.00,40.00,Tuesday
9,14371653.562325286
2,3, 1, 3, 0,23,40.00,50.00,Tuesday
9,15593792.543346848
2,3, 1, 3, 0,23,50.00,60.00,Tuesday
9,16126329.718192013
2,3, 1, 3, 0,24, 0.00,10.00,Tuesday
9,18582873.016688753
2,3, 1, 3, 0,24,10.00,20.00,Tuesday
9,19551392.68750688
2,3, 1, 3, 0,24,20.00,30.00,Tuesday
9,20079796.957442727
2,3, 1, 3, 0,24,30.00,40.00,Tuesday
9,20971259.752958782
2,3, 1, 3, 0,24,40.00,50.00,Tuesday
9,20861027.33161458
2,3, 1, 3, 0,24,50.00,60.00,Tuesday
9,21120615.77349064
2,4, 1, 4, 0, 1, 0.00,10.00,Wednesday
9,22613306.13404738
2,4, 1, 4, 0, 1,10.00,20.00,Wednesday
9,22900978.78747919
2,4, 1, 4, 0, 1,20.00,30.00,Wednesday
9,23386985.583814714
2,4, 1, 4, 0, 1,30.00,40.00,Wednesday
9,22904320.977341134
2,4, 1, 4, 0, 1,40.00,50.00,Wednesday
9,22788425.265835084
2,4, 1, 4, 0, 1,50.00,60.00,Wednesday
9,22605651.972534347
2,4, 1, 4, 0, 2, 0.00,10.00,Wednesday
9,24376627.39726007
2,4, 1, 4, 0, 2,10.00,20.00,Wednesday
9,24498095.499529634
2,4, 1, 4, 0, 2,20.00,30.00,Wednesday
9,24940325.382524684
2,4, 1, 4, 0, 2,30.00,40.00,Wednesday
9,25353672.773276586
2,4, 1, 4, 0, 2,40.00,50.00,Wednesday
9,25738905.226117842
2,4, 1, 4, 0, 2,50.00,60.00,Wednesday
9,26549687.26686078
2,4, 1, 4, 0, 3, 0.00,10.00,Wednesday
9,26765094.317081347
2,4, 1, 4, 0, 3,10.00,20.00,Wednesday
9,26920990.93652871
2,4, 1, 4, 0, 3,20.00,30.00,Wednesday
9,26984585.292511437
2,4, 1, 4, 0, 3,30.00,40.00,Wednesday
9,27205289.05323187
2,4, 1, 4, 0, 3,40.00,50.00,Wednesday
9,27306476.120602977
2,4, 1, 4, 0, 3,50.00,60.00,Wednesday
9,27042125.45099895
2,4, 1, 4, 0, 4, 0.00,10.00,Wednesday
9,27354954.115080934
2,4, 1, 4, 0, 4,10.00,20.00,Wednesday
9,27496278.859656166
2,4, 1, 4, 0, 4,20.00,30.00,Wednesday
9,28059706.276021045
2,4, 1, 4, 0, 4,30.00,40.00,Wednesday
9,27715276.834079552
2,4, 1, 4, 0, 4,40.00,50.00,Wednesday
9,27814906.38590258
2,4, 1, 4, 0, 4,50.00,60.00,Wednesday
9,27910283.57926472
2,4, 1, 4, 0, 5, 0.00,10.00,Wednesday
9,27457150.08459759
2,4, 1, 4, 0, 5,10.00,20.00,Wednesday
9,27329932.242803678
2,4, 1, 4, 0, 5,20.00,30.00,Wednesday
9,26301925.97821479
2,4, 1, 4, 0, 5,30.00,40.00,Wednesday
9,25728816.71962661
2,4, 1, 4, 0, 5,40.00,50.00,Wednesday
9,25168009.87626833
2,4, 1, 4, 0, 5,50.00,60.00,Wednesday
9,25073869.831475228
2,4, 1, 4, 0, 6, 0.00,10.00,Wednesday
9,24914404.81688333
2,4, 1, 4, 0, 6,10.00,20.00,Wednesday
9,25314111.7328596
2,4, 1, 4, 0, 6,20.00,30.00,Wednesday
9,25751949.02764454
2,4, 1, 4, 0, 6,30.00,40.00,Wednesday
9,26214318.88998917
2,4, 1, 4, 0, 6,40.00,50.00,Wednesday
9,27146547.559472967
2,4, 1, 4, 0, 6,50.00,60.00,Wednesday
9,27200898.481987815
2,4, 1, 4, 0, 7, 0.00,10.00,Wednesday
9,27107691.217028674
2,4, 1, 4, 0, 7,10.00,20.00,Wednesday
9,26734906.03449883
2,4, 1, 4, 0, 7,20.00,30.00,Wednesday
9,26586927.97547352
2,4, 1, 4, 0, 7,30.00,40.00,Wednesday
9,26113469.113989983
2,4, 1, 4, 0, 7,40.00,50.00,Wednesday
9,25486664.011271223
2,4, 1, 4, 0, 7,50.00,60.00,Wednesday
9,25045769.552123934
2,4, 1, 4, 0, 8, 0.00,10.00,Wednesday
9,78101233.72978395
2,4, 1, 4, 0, 8,10.00,20.00,Wednesday
9,21067367.452846125
2,4, 1, 4, 0, 8,20.00,30.00,Wednesday
9,44963667.51621523
2,4, 1, 4, 0, 8,30.00,40.00,Wednesday
9,40666064.85010465
2,4, 1, 4, 0, 8,40.00,50.00,Wednesday
9,41313576.0348164
2,4, 1, 4, 0, 8,50.00,60.00,Wednesday
9,36261252.945359714
2,4, 1, 4, 0, 9, 0.00,10.00,Wednesday
9,73245653.91296652
2,4, 1, 4, 0, 9,10.00,20.00,Wednesday
9,55035757.77771084
2,4, 1, 4, 0, 9,20.00,30.00,Wednesday
9,52185690.10567242
2,4, 1, 4, 0, 9,30.00,40.00,Wednesday
9,50212649.90185766
2,4, 1, 4, 0, 9,40.00,50.00,Wednesday
9,47569108.73589996
2,4, 1, 4, 0, 9,50.00,60.00,Wednesday
9,46432943.1955646
2,4, 1, 4, 0,10, 0.00,10.00,Wednesday
9,94212891.0994546
2,4, 1, 4, 0,10,10.00,20.00,Wednesday
9,99063786.16432877
2,4, 1, 4, 0,10,20.00,30.00,Wednesday
9,94678785.7235541
2,4, 1, 4, 0,10,30.00,40.00,Wednesday
9,94524719.74817267
2,4, 1, 4, 0,10,40.00,50.00,Wednesday
9,90038174.51891527
2,4, 1, 4, 0,10,50.00,60.00,Wednesday
9,91295081.23029447
2,4, 1, 4, 0,11, 0.00,10.00,Wednesday
9,77331260.00115629
2,4, 1, 4, 0,11,10.00,20.00,Wednesday
9,86470210.07849306
2,4, 1, 4, 0,11,20.00,30.00,Wednesday
9,70691331.37690356
2,4, 1, 4, 0,11,30.00,40.00,Wednesday
9,85310443.30026881
2,4, 1, 4, 0,11,40.00,50.00,Wednesday
9,66184065.291884325
2,4, 1, 4, 0,11,50.00,60.00,Wednesday
9,81076479.7378051
2,4, 1, 4, 0,12, 0.00,10.00,Wednesday
9,63556031.190909974
2,4, 1, 4, 0,12,10.00,20.00,Wednesday
9,75962384.10964674
2,4, 1, 4, 0,12,20.00,30.00,Wednesday
9,63977148.36654886
2,4, 1, 4, 0,12,30.00,40.00,Wednesday
9,73727340.67465778
2,4, 1, 4, 0,12,40.00,50.00,Wednesday
9,62496840.391173325
2,4, 1, 4, 0,12,50.00,60.00,Wednesday
9,71525338.8864505
2,4, 1, 4, 0,13, 0.00,10.00,Wednesday
9,55536434.56109543
2,4, 1, 4, 0,13,10.00,20.00,Wednesday
9,58859322.47037277
2,4, 1, 4, 0,13,20.00,30.00,Wednesday
9,54864627.68330837
2,4, 1, 4, 0,13,30.00,40.00,Wednesday
9,53414650.408492066
2,4, 1, 4, 0,13,40.00,50.00,Wednesday
9,51801226.09969879
2,4, 1, 4, 0,13,50.00,60.00,Wednesday
9,50353937.34564107
2,4, 1, 4, 0,14, 0.00,10.00,Wednesday
9,45319842.44996558
2,4, 1, 4, 0,14,10.00,20.00,Wednesday
9,44396872.64931686
2,4, 1, 4, 0,14,20.00,30.00,Wednesday
9,43892006.816101424
2,4, 1, 4, 0,14,30.00,40.00,Wednesday
9,43371896.9387651
2,4, 1, 4, 0,14,40.00,50.00,Wednesday
9,42715878.12116276
2,4, 1, 4, 0,14,50.00,60.00,Wednesday
9,42268338.77585552
2,4, 1, 4, 0,15, 0.00,10.00,Wednesday
9,36589180.95593945
2,4, 1, 4, 0,15,10.00,20.00,Wednesday
9,34723711.68629342
2,4, 1, 4, 0,15,20.00,30.00,Wednesday
9,34625661.0437611
2,4, 1, 4, 0,15,30.00,40.00,Wednesday
9,34544249.83493069
2,4, 1, 4, 0,15,40.00,50.00,Wednesday
9,34400120.31634581
2,4, 1, 4, 0,15,50.00,60.00,Wednesday