Program Version,EnergyPlus, Version 23.2.0-7636e6b3e9, YMD=2025.01.12 17:47
1,5,Environment Title[],Latitude[deg],Longitude[deg],Time Zone[],Elevation[m]
2,8,Day of Simulation[],Month[],Day of Month[],DST Indicator[1=yes 0=no],Hour[],StartMinute[],EndMinute[],DayType
3,5,Cumulative Day of Simulation[],Month[],Day of Month[],DST Indicator[1=yes 0=no],DayType  ! When Daily Report Variables Requested
4,2,Cumulative Days of Simulation[],Month[]  ! When Monthly Report Variables Requested
5,1,Cumulative Days of Simulation[] ! When Run Period Report Variables Requested
6,1,Calendar Year of Simulation[] ! When Annual Report Variables Requested
9,1,Electricity:Facility [J] !TimeStep
End of Data Dictionary
1,RUN PERIOD 1,  51.11,-114.02,  -7.00,1084.10
2,1, 1, 1, 0, 1, 0.00,10.00,Sunday
9,30350769.92511986
2,1, 1, 1, 0, 1,10.00,20.00,Sunday
9,32858657.932036065
2,1, 1, 1, 0, 1,20.00,30.00,Sunday
9,34920143.061911784
2,1, 1, 1, 0, 1,30.00,40.00,Sunday
9,36999118.68835992
2,1, 1, 1, 0, 1,40.00,50.00,Sunday
9,39526661.99013066
2,1, 1, 1, 0, 1,50.00,60.00,Sunday
9,41162501.63278526
2,1, 1, 1, 0, 2, 0.00,10.00,Sunday
9,45910634.002503626
2,1, 1, 1, 0, 2,10.00,20.00,Sunday
9,49100717.549405545
2,1, 1, 1, 0, 2,20.00,30.00,Sunday
9,52082926.09412352
2,1, 1, 1, 0, 2,30.00,40.00,Sunday
9,55055282.06132062
2,1, 1, 1, 0, 2,40.00,50.00,Sunday
9,57375819.83982436
2,1, 1, 1, 0, 2,50.00,60.00,Sunday
9,59950422.04636946
2,1, 1, 1, 0, 3, 0.00,10.00,Sunday
9,61309329.75874433
2,1, 1, 1, 0, 3,10.00,20.00,Sunday
9,62582449.26885447
2,1, 1, 1, 0, 3,20.00,30.00,Sunday
9,62837240.563469544
2,1, 1, 1, 0, 3,30.00,40.00,Sunday
9,63507811.19833998
2,1, 1, 1, 0, 3,40.00,50.00,Sunday
9,64143337.54541552
2,1, 1, 1, 0, 3,50.00,60.00,Sunday
9,64750189.16020308
2,1, 1, 1, 0, 4, 0.00,10.00,Sunday
9,61198222.658359624
2,1, 1, 1, 0, 4,10.00,20.00,Sunday
9,56705386.20016176
2,1, 1, 1, 0, 4,20.00,30.00,Sunday
9,52687021.21606702
2,1, 1, 1, 0, 4,30.00,40.00,Sunday
9,48704176.965651676
2,1, 1, 1, 0, 4,40.00,50.00,Sunday
9,45165181.77357626
2,1, 1, 1, 0, 4,50.00,60.00,Sunday
9,40895605.02135987
2,1, 1, 1, 0, 5, 0.00,10.00,Sunday
9,42635665.596099876
2,1, 1, 1, 0, 5,10.00,20.00,Sunday
9,44516083.13438385
2,1, 1, 1, 0, 5,20.00,30.00,Sunday
9,46397600.281342775
2,1, 1, 1, 0, 5,30.00,40.00,Sunday
9,48718494.085780926
2,1, 1, 1, 0, 5,40.00,50.00,Sunday
9,50114784.49220027
2,1, 1, 1, 0, 5,50.00,60.00,Sunday
9,51945534.23481063
2,1, 1, 1, 0, 6, 0.00,10.00,Sunday
9,54827622.72809623
2,1, 1, 1, 0, 6,10.00,20.00,Sunday
9,57824043.08902805
2,1, 1, 1, 0, 6,20.00,30.00,Sunday
9,60994637.61384213
2,1, 1, 1, 0, 6,30.00,40.00,Sunday
9,63483622.58253421
2,1, 1, 1, 0, 6,40.00,50.00,Sunday
9,66302938.18067689
2,1, 1, 1, 0, 6,50.00,60.00,Sunday
9,69085991.58222221
2,1, 1, 1, 0, 7, 0.00,10.00,Sunday
9,65031710.11389578
2,1, 1, 1, 0, 7,10.00,20.00,Sunday
9,60133527.95764758
2,1, 1, 1, 0, 7,20.00,30.00,Sunday
9,55788240.53335453
2,1, 1, 1, 0, 7,30.00,40.00,Sunday
9,51549502.51768337
2,1, 1, 1, 0, 7,40.00,50.00,Sunday
9,47419612.49166164
2,1, 1, 1, 0, 7,50.00,60.00,Sunday
9,43849701.725138284
2,1, 1, 1, 0, 8, 0.00,10.00,Sunday
9,46937244.167692356
2,1, 1, 1, 0, 8,10.00,20.00,Sunday
9,50400064.85463755
2,1, 1, 1, 0, 8,20.00,30.00,Sunday
9,53641521.05914478
2,1, 1, 1, 0, 8,30.00,40.00,Sunday
9,57021922.16801629
2,1, 1, 1, 0, 8,40.00,50.00,Sunday
9,59463993.19661346
2,1, 1, 1, 0, 8,50.00,60.00,Sunday
9,61899763.52137553
2,1, 1, 1, 0, 9, 0.00,10.00,Sunday
9,60406908.896269396
2,1, 1, 1, 0, 9,10.00,20.00,Sunday
9,59042589.11828568
2,1, 1, 1, 0, 9,20.00,30.00,Sunday
9,58168836.37859484
2,1, 1, 1, 0, 9,30.00,40.00,Sunday
9,56411894.54103455
2,1, 1, 1, 0, 9,40.00,50.00,Sunday
9,54947214.218615234
2,1, 1, 1, 0, 9,50.00,60.00,Sunday
9,53525774.145471394
2,1, 1, 1, 0,10, 0.00,10.00,Sunday
9,102688235.3881449
2,1, 1, 1, 0,10,10.00,20.00,Sunday
9,55449366.1043015
2,1, 1, 1, 0,10,20.00,30.00,Sunday
9,89319474.53749165
2,1, 1, 1, 0,10,30.00,40.00,Sunday
9,84859537.74962126
2,1, 1, 1, 0,10,40.00,50.00,Sunday
9,87360879.11445688
2,1, 1, 1, 0,10,50.00,60.00,Sunday
9,90528900.72128978
2,1, 1, 1, 0,11, 0.00,10.00,Sunday
9,129379840.29389207
2,1, 1, 1, 0,11,10.00,20.00,Sunday
9,108761822.48697047
2,1, 1, 1, 0,11,20.00,30.00,Sunday
9,101237606.77315065
2,1, 1, 1, 0,11,30.00,40.00,Sunday
9,97331451.14945836
2,1, 1, 1, 0,11,40.00,50.00,Sunday
9,91668177.23263298
2,1, 1, 1, 0,11,50.00,60.00,Sunday
9,87089724.21834992
2,1, 1, 1, 0,12, 0.00,10.00,Sunday
9,129411484.8929603
2,1, 1, 1, 0,12,10.00,20.00,Sunday
9,128681019.64716429
2,1, 1, 1, 0,12,20.00,30.00,Sunday
9,129801004.47642696
2,1, 1, 1, 0,12,30.00,40.00,Sunday
9,131560729.26083957
2,1, 1, 1, 0,12,40.00,50.00,Sunday
9,133640629.75365022
2,1, 1, 1, 0,12,50.00,60.00,Sunday
9,135516977.07984233
2,1, 1, 1, 0,13, 0.00,10.00,Sunday
9,130661402.03388795
2,1, 1, 1, 0,13,10.00,20.00,Sunday
9,127786499.63326295
2,1, 1, 1, 0,13,20.00,30.00,Sunday
9,125496760.37959418
2,1, 1, 1, 0,13,30.00,40.00,Sunday
9,122904876.11216229
2,1, 1, 1, 0,13,40.00,50.00,Sunday
9,120476519.4339499
2,1, 1, 1, 0,13,50.00,60.00,Sunday
9,118128948.91195357
2,1, 1, 1, 0,14, 0.00,10.00,Sunday
9,114766428.15161489
2,1, 1, 1, 0,14,10.00,20.00,Sunday
9,112807431.00387754
2,1, 1, 1, 0,14,20.00,30.00,Sunday
9,110902541.21769692
2,1, 1, 1, 0,14,30.00,40.00,Sunday
9,109185247.09706004
2,1, 1, 1, 0,14,40.00,50.00,Sunday
9,107537040.3637806
2,1, 1, 1, 0,14,50.00,60.00,Sunday
9,105938824.79215385
2,1, 1, 1, 0,15, 0.00,10.00,Sunday
9,101665478.67826329
2,1, 1, 1, 0,15,10.00,20.00,Sunday
9,97701448.13901663
2,1, 1, 1, 0,15,20.00,30.00,Sunday
9,93749206.8054634
2,1, 1, 1, 0,15,30.00,40.00,Sunday
9,89876389.84321024
2,1, 1, 1, 0,15,40.00,50.00,Sunday
9,86001981.69258432
2,1, 1, 1, 0,15,50.00,60.00,Sunday
9,82111241.56371698
2,1, 1, 1, 0,16, 0.00,10.00,Sunday
9,84399812.59925093
2,1, 1, 1, 0,16,10.00,20.00,Sunday
9,85759945.70004787
2,1, 1, 1, 0,16,20.00,30.00,Sunday
9,87032433.4253872
2,1, 1, 1, 0,16,30.00,40.00,Sunday
9,88354511.0901299
2,1, 1, 1, 0,16,40.00,50.00,Sunday
9,89455165.08641493
2,1, 1, 1, 0,16,50.00,60.00,Sunday
9,90061719.4178594
2,1, 1, 1, 0,17, 0.00,10.00,Sunday
9,89490803.15458453
2,1, 1, 1, 0,17,10.00,20.00,Sunday
9,88096672.7746535
2,1, 1, 1, 0,17,20.00,30.00,Sunday
9,86529070.65765624
2,1, 1, 1, 0,17,30.00,40.00,Sunday
9,84938415.51083001
2,1, 1, 1, 0,17,40.00,50.00,Sunday
9,83347490.16917089
2,1, 1, 1, 0,17,50.00,60.00,Sunday
9,81654065.71340884
2,1, 1, 1, 0,18, 0.00,10.00,Sunday
9,83465672.76274058
2,1, 1, 1, 0,18,10.00,20.00,Sunday
9,84954428.62030633
2,1, 1, 1, 0,18,20.00,30.00,Sunday
9,86349072.63555081
2,1, 1, 1, 0,18,30.00,40.00,Sunday
9,87733495.86409605
2,1, 1, 1, 0,18,40.00,50.00,Sunday
9,88994110.94238536
2,1, 1, 1, 0,18,50.00,60.00,Sunday
9,90279536.42941949
2,1, 1, 1, 0,19, 0.00,10.00,Sunday
9,86426172.142758
2,1, 1, 1, 0,19,10.00,20.00,Sunday
9,86919948.48684768
2,1, 1, 1, 0,19,20.00,30.00,Sunday
9,86740719.15956765
2,1, 1, 1, 0,19,30.00,40.00,Sunday
9,85948102.20755437
2,1, 1, 1, 0,19,40.00,50.00,Sunday
9,86136407.40878561
2,1, 1, 1, 0,19,50.00,60.00,Sunday
9,85782931.27485585
2,1, 1, 1, 0,20, 0.00,10.00,Sunday
9,1335817.0940945493
2,1, 1, 1, 0,20,10.00,20.00,Sunday
9,1335817.0940945493
2,1, 1, 1, 0,20,20.00,30.00,Sunday
9,1361305.6650100285
2,1, 1, 1, 0,20,30.00,40.00,Sunday
9,3740874.4604002354
2,1, 1, 1, 0,20,40.00,50.00,Sunday
9,3910305.2799909473
2,1, 1, 1, 0,20,50.00,60.00,Sunday
9,3840463.881745825
2,1, 1, 1, 0,21, 0.00,10.00,Sunday
9,6064935.582468989
2,1, 1, 1, 0,21,10.00,20.00,Sunday
9,12918279.022450447
2,1, 1, 1, 0,21,20.00,30.00,Sunday
9,14267918.269512068
2,1, 1, 1, 0,21,30.00,40.00,Sunday
9,10768632.121080883
2,1, 1, 1, 0,21,40.00,50.00,Sunday
9,11359786.658775764
2,1, 1, 1, 0,21,50.00,60.00,Sunday
9,10862873.77597669
2,1, 1, 1, 0,22, 0.00,10.00,Sunday
9,16667593.714085218
2,1, 1, 1, 0,22,10.00,20.00,Sunday
9,19332161.581724122
2,1, 1, 1, 0,22,20.00,30.00,Sunday
9,21977111.720688544
2,1, 1, 1, 0,22,30.00,40.00,Sunday
9,24559843.308064364
2,1, 1, 1, 0,22,40.00,50.00,Sunday
9,27350144.665762316
2,1, 1, 1, 0,22,50.00,60.00,Sunday
9,29806166.656870175
2,1, 1, 1, 0,23, 0.00,10.00,Sunday
9,30522217.962925747
2,1, 1, 1, 0,23,10.00,20.00,Sunday
9,30211097.572491206
2,1, 1, 1, 0,23,20.00,30.00,Sunday
9,29686326.349365402
2,1, 1, 1, 0,23,30.00,40.00,Sunday
9,29576541.71605874
2,1, 1, 1, 0,23,40.00,50.00,Sunday
9,28521364.560503237
2,1, 1, 1, 0,23,50.00,60.00,Sunday
9,27899378.02113556
2,1, 1, 1, 0,24, 0.00,10.00,Sunday
9,29348347.934244968
2,1, 1, 1, 0,24,10.00,20.00,Sunday
9,30263013.503274582
2,1, 1, 1, 0,24,20.00,30.00,Sunday
9,31533884.08502549
2,1, 1, 1, 0,24,30.00,40.00,Sunday
9,31889525.25899104
2,1, 1, 1, 0,24,40.00,50.00,Sunday
9,32678876.243136473
2,1, 1, 1, 0,24,50.00,60.00,Sunday
9,33459978.034276668
2,2, 1, 2, 0, 1, 0.00,10.00,Monday
9,36864339.03402731
2,2, 1, 2, 0, 1,10.00,20.00,Monday
9,38889826.425348245
2,2, 1, 2, 0, 1,20.00,30.00,Monday
9,41090378.3489726
2,2, 1, 2, 0, 1,30.00,40.00,Monday
9,43044882.76780458
2,2, 1, 2, 0, 1,40.00,50.00,Monday
9,44759375.61056016
2,2, 1, 2, 0, 1,50.00,60.00,Monday
9,46691686.0611828
2,2, 1, 2, 0, 2, 0.00,10.00,Monday
9,45946197.87725011
2,2, 1, 2, 0, 2,10.00,20.00,Monday
9,45794915.51260723
2,2, 1, 2, 0, 2,20.00,30.00,Monday
9,45668790.866797596
2,2, 1, 2, 0, 2,30.00,40.00,Monday
9,45772685.519700535
2,2, 1, 2, 0, 2,40.00,50.00,Monday
9,45659607.42851988
2,2, 1, 2, 0, 2,50.00,60.00,Monday
9,45318281.26433383
2,2, 1, 2, 0, 3, 0.00,10.00,Monday
9,44324175.62285974
2,2, 1, 2, 0, 3,10.00,20.00,Monday
9,43458018.55559168
2,2, 1, 2, 0, 3,20.00,30.00,Monday
9,43069959.88728832
2,2, 1, 2, 0, 3,30.00,40.00,Monday
9,41777189.176347524
2,2, 1, 2, 0, 3,40.00,50.00,Monday
9,40940798.31985842
2,2, 1, 2, 0, 3,50.00,60.00,Monday
9,40104603.77133386
2,2, 1, 2, 0, 4, 0.00,10.00,Monday
9,39020349.53671794
2,2, 1, 2, 0, 4,10.00,20.00,Monday
9,38348555.1544039
2,2, 1, 2, 0, 4,20.00,30.00,Monday
9,36786982.4658893
2,2, 1, 2, 0, 4,30.00,40.00,Monday
9,35690477.954042904
2,2, 1, 2, 0, 4,40.00,50.00,Monday
9,34587054.71590594
2,2, 1, 2, 0, 4,50.00,60.00,Monday
9,33980909.67735304
2,2, 1, 2, 0, 5, 0.00,10.00,Monday
9,35813729.13936865
2,2, 1, 2, 0, 5,10.00,20.00,Monday
9,38127905.99943273
2,2, 1, 2, 0, 5,20.00,30.00,Monday
9,40420751.49452557
2,2, 1, 2, 0, 5,30.00,40.00,Monday
9,42717783.11264631
2,2, 1, 2, 0, 5,40.00,50.00,Monday
9,45472362.48803694
2,2, 1, 2, 0, 5,50.00,60.00,Monday
9,47328018.7609393
2,2, 1, 2, 0, 6, 0.00,10.00,Monday
9,9161586.818967966
2,2, 1, 2, 0, 6,10.00,20.00,Monday
9,23563550.99431538
2,2, 1, 2, 0, 6,20.00,30.00,Monday
9,35534870.16171548
2,2, 1, 2, 0, 6,30.00,40.00,Monday
9,39345972.07509452
2,2, 1, 2, 0, 6,40.00,50.00,Monday
9,40224753.83736647
2,2, 1, 2, 0, 6,50.00,60.00,Monday
9,42380716.59727764
2,2, 1, 2, 0, 7, 0.00,10.00,Monday
9,41807129.34869687
2,2, 1, 2, 0, 7,10.00,20.00,Monday
9,90462076.44276199
2,2, 1, 2, 0, 7,20.00,30.00,Monday
9,31258905.262687396
2,2, 1, 2, 0, 7,30.00,40.00,Monday
9,62317330.64954996
2,2, 1, 2, 0, 7,40.00,50.00,Monday
9,50670504.583113596
2,2, 1, 2, 0, 7,50.00,60.00,Monday
9,45896640.577652894
2,2, 1, 2, 0, 8, 0.00,10.00,Monday
9,90173936.36521612
2,2, 1, 2, 0, 8,10.00,20.00,Monday
9,32691244.977037463
2,2, 1, 2, 0, 8,20.00,30.00,Monday
9,63341808.75013882
2,2, 1, 2, 0, 8,30.00,40.00,Monday
9,52022786.970625244
2,2, 1, 2, 0, 8,40.00,50.00,Monday
9,49390481.59166396
2,2, 1, 2, 0, 8,50.00,60.00,Monday
9,46269630.7968514
2,2, 1, 2, 0, 9, 0.00,10.00,Monday
9,96127879.92481758
2,2, 1, 2, 0, 9,10.00,20.00,Monday
9,42399105.17717769
2,2, 1, 2, 0, 9,20.00,30.00,Monday
9,75780961.77126904
2,2, 1, 2, 0, 9,30.00,40.00,Monday
9,68624386.11493607
2,2, 1, 2, 0, 9,40.00,50.00,Monday
9,70393430.84793493
2,2, 1, 2, 0, 9,50.00,60.00,Monday
9,71662787.96831721
2,2, 1, 2, 0,10, 0.00,10.00,Monday
9,118112482.32343455
2,2, 1, 2, 0,10,10.00,20.00,Monday
9,115240654.44139467
2,2, 1, 2, 0,10,20.00,30.00,Monday
9,113149088.48660184
2,2, 1, 2, 0,10,30.00,40.00,Monday
9,112128005.42966266
2,2, 1, 2, 0,10,40.00,50.00,Monday
9,110823029.98338532
2,2, 1, 2, 0,10,50.00,60.00,Monday
9,109229929.06384589
2,2, 1, 2, 0,11, 0.00,10.00,Monday
9,105145687.82011062
2,2, 1, 2, 0,11,10.00,20.00,Monday
9,104115009.17099304
2,2, 1, 2, 0,11,20.00,30.00,Monday
9,103316158.46008116
2,2, 1, 2, 0,11,30.00,40.00,Monday
9,102786869.93426609
2,2, 1, 2, 0,11,40.00,50.00,Monday
9,102402477.54682152
2,2, 1, 2, 0,11,50.00,60.00,Monday
9,102103448.180211
2,2, 1, 2, 0,12, 0.00,10.00,Monday
9,96234770.42420462
2,2, 1, 2, 0,12,10.00,20.00,Monday
9,91277265.04271746
2,2, 1, 2, 0,12,20.00,30.00,Monday
9,86621462.21053964
2,2, 1, 2, 0,12,30.00,40.00,Monday
9,81880636.8090269
2,2, 1, 2, 0,12,40.00,50.00,Monday
9,77214517.8622324
2,2, 1, 2, 0,12,50.00,60.00,Monday
9,72543998.72373782
2,2, 1, 2, 0,13, 0.00,10.00,Monday
9,73140985.63603391
2,2, 1, 2, 0,13,10.00,20.00,Monday
9,74049738.54252768
2,2, 1, 2, 0,13,20.00,30.00,Monday
9,75053344.39441316
2,2, 1, 2, 0,13,30.00,40.00,Monday
9,76608227.14317901
2,2, 1, 2, 0,13,40.00,50.00,Monday
9,78157080.40521869
2,2, 1, 2, 0,13,50.00,60.00,Monday
9,79748246.54434207
2,2, 1, 2, 0,14, 0.00,10.00,Monday
9,80058153.10203339
2,2, 1, 2, 0,14,10.00,20.00,Monday
9,80541026.15946169
2,2, 1, 2, 0,14,20.00,30.00,Monday
9,81004081.42804489
2,2, 1, 2, 0,14,30.00,40.00,Monday
9,80472011.85188727
2,2, 1, 2, 0,14,40.00,50.00,Monday
9,79757003.95819895
2,2, 1, 2, 0,14,50.00,60.00,Monday
9,78918919.31060566
2,2, 1, 2, 0,15, 0.00,10.00,Monday
9,76296290.82717153
2,2, 1, 2, 0,15,10.00,20.00,Monday
9,76553531.46257438
2,2, 1, 2, 0,15,20.00,30.00,Monday
9,76012677.50127421
2,2, 1, 2, 0,15,30.00,40.00,Monday
9,75443681.48562682
2,2, 1, 2, 0,15,40.00,50.00,Monday
9,74558843.66786577
2,2, 1, 2, 0,15,50.00,60.00,Monday
9,73417174.05579554
2,2, 1, 2, 0,16, 0.00,10.00,Monday
9,69809691.19977139
2,2, 1, 2, 0,16,10.00,20.00,Monday
9,69719499.60661203
2,2, 1, 2, 0,16,20.00,30.00,Monday
9,70115357.52172363
2,2, 1, 2, 0,16,30.00,40.00,Monday
9,71000260.45404103
2,2, 1, 2, 0,16,40.00,50.00,Monday
9,72036340.7089298
2,2, 1, 2, 0,16,50.00,60.00,Monday
9,73187392.21663111
2,2, 1, 2, 0,17, 0.00,10.00,Monday
9,75319989.57102416
2,2, 1, 2, 0,17,10.00,20.00,Monday
9,75503399.7826764
2,2, 1, 2, 0,17,20.00,30.00,Monday
9,75719885.49856901
2,2, 1, 2, 0,17,30.00,40.00,Monday
9,76427250.67934911
2,2, 1, 2, 0,17,40.00,50.00,Monday
9,76404122.45729074
2,2, 1, 2, 0,17,50.00,60.00,Monday
9,75833775.6247336
2,2, 1, 2, 0,18, 0.00,10.00,Monday
9,77358965.9324083
2,2, 1, 2, 0,18,10.00,20.00,Monday
9,76547719.34581345
2,2, 1, 2, 0,18,20.00,30.00,Monday
9,75081716.7296887
2,2, 1, 2, 0,18,30.00,40.00,Monday
9,73569347.78311443
2,2, 1, 2, 0,18,40.00,50.00,Monday
9,72031605.45320724
2,2, 1, 2, 0,18,50.00,60.00,Monday
9,70392277.20359232
2,2, 1, 2, 0,19, 0.00,10.00,Monday
9,75885468.88527702
2,2, 1, 2, 0,19,10.00,20.00,Monday
9,80117225.64955822
2,2, 1, 2, 0,19,20.00,30.00,Monday
9,84138680.75874168
2,2, 1, 2, 0,19,30.00,40.00,Monday
9,88139878.02347213
2,2, 1, 2, 0,19,40.00,50.00,Monday
9,92013537.8678998
2,2, 1, 2, 0,19,50.00,60.00,Monday
9,95950804.0188368
2,2, 1, 2, 0,20, 0.00,10.00,Monday
9,91711566.24986658
2,2, 1, 2, 0,20,10.00,20.00,Monday
9,91695377.40825431
2,2, 1, 2, 0,20,20.00,30.00,Monday
9,90993093.69305062
2,2, 1, 2, 0,20,30.00,40.00,Monday
9,89682728.64406365
2,2, 1, 2, 0,20,40.00,50.00,Monday
9,89373540.14386475
2,2, 1, 2, 0,20,50.00,60.00,Monday
9,88517658.8480565
2,2, 1, 2, 0,21, 0.00,10.00,Monday
9,85433129.10812023
2,2, 1, 2, 0,21,10.00,20.00,Monday
9,83042502.37572455
2,2, 1, 2, 0,21,20.00,30.00,Monday
9,80583521.38901831
2,2, 1, 2, 0,21,30.00,40.00,Monday
9,77443966.94017701
2,2, 1, 2, 0,21,40.00,50.00,Monday
9,73382409.3556327
2,2, 1, 2, 0,21,50.00,60.00,Monday
9,70108472.69549961
2,2, 1, 2, 0,22, 0.00,10.00,Monday
9,1335817.0940945493
2,2, 1, 2, 0,22,10.00,20.00,Monday
9,1792698.6468197869
2,2, 1, 2, 0,22,20.00,30.00,Monday
9,3809056.1084728264
2,2, 1, 2, 0,22,30.00,40.00,Monday
9,8365556.504921655
2,2, 1, 2, 0,22,40.00,50.00,Monday
9,18947990.652857278
2,2, 1, 2, 0,22,50.00,60.00,Monday
9,29706487.71603462
2,2, 1, 2, 0,23, 0.00,10.00,Monday
9,33155227.419224337
2,2, 1, 2, 0,23,10.00,20.00,Monday
9,32753933.116250142
2,2, 1, 2, 0,23,20.00,30.00,Monday
9,32078599.043068036
2,2, 1, 2, 0,23,30.00,40.00,Monday
9,30898849.24430446
2,2, 1, 2, 0,23,40.00,50.00,Monday
9,29975500.02254623
2,2, 1, 2, 0,23,50.00,60.00,Monday
9,28053660.081366807
2,2, 1, 2, 0,24, 0.00,10.00,Monday
9,29093666.742969647
2,2, 1, 2, 0,24,10.00,20.00,Monday
9,28463523.816454146
2,2, 1, 2, 0,24,20.00,30.00,Monday
9,27456813.18662773
2,2, 1, 2, 0,24,30.00,40.00,Monday
9,26809285.718806673
2,2, 1, 2, 0,24,40.00,50.00,Monday
9,25165566.828006435
2,2, 1, 2, 0,24,50.00,60.00,Monday
9,23898427.8385951
2,3, 1, 3, 0, 1, 0.00,10.00,Tuesday
9,25237504.04837148
2,3, 1, 3, 0, 1,10.00,20.00,Tuesday
9,25930244.912998125
2,3, 1, 3, 0, 1,20.00,30.00,Tuesday
9,26027547.329933565
2,3, 1, 3, 0, 1,30.00,40.00,Tuesday
9,26033837.674878027
2,3, 1, 3, 0, 1,40.00,50.00,Tuesday
9,26157846.050942995
2,3, 1, 3, 0, 1,50.00,60.00,Tuesday
9,26245733.228794113
2,3, 1, 3, 0, 2, 0.00,10.00,Tuesday
9,25798541.67263164
2,3, 1, 3, 0, 2,10.00,20.00,Tuesday
9,24047347.90038359
2,3, 1, 3, 0, 2,20.00,30.00,Tuesday
9,22581040.832250014
2,3, 1, 3, 0, 2,30.00,40.00,Tuesday
9,21020301.088248685
2,3, 1, 3, 0, 2,40.00,50.00,Tuesday
9,19342260.526944436
2,3, 1, 3, 0, 2,50.00,60.00,Tuesday
9,18020904.459149767
2,3, 1, 3, 0, 3, 0.00,10.00,Tuesday
9,21123845.25423049
2,3, 1, 3, 0, 3,10.00,20.00,Tuesday
9,24411679.950275317
2,3, 1, 3, 0, 3,20.00,30.00,Tuesday
9,27851696.320997633
2,3, 1, 3, 0, 3,30.00,40.00,Tuesday
9,31963369.57744346
2,3, 1, 3, 0, 3,40.00,50.00,Tuesday
9,35382373.29495923
2,3, 1, 3, 0, 3,50.00,60.00,Tuesday
9,39534799.87558631
2,3, 1, 3, 0, 4, 0.00,10.00,Tuesday
9,38305783.616993494
2,3, 1, 3, 0, 4,10.00,20.00,Tuesday
9,36824734.92758027
2,3, 1, 3, 0, 4,20.00,30.00,Tuesday
9,35756480.19921084
2,3, 1, 3, 0, 4,30.00,40.00,Tuesday
9,33795459.797673136
2,3, 1, 3, 0, 4,40.00,50.00,Tuesday
9,32298708.239950277
2,3, 1, 3, 0, 4,50.00,60.00,Tuesday
9,30820480.34387076
2,3, 1, 3, 0, 5, 0.00,10.00,Tuesday
9,33614153.33978566
2,3, 1, 3, 0, 5,10.00,20.00,Tuesday
9,35738107.14296395
2,3, 1, 3, 0, 5,20.00,30.00,Tuesday
9,37911723.104061395
2,3, 1, 3, 0, 5,30.00,40.00,Tuesday
9,40113230.072207265
2,3, 1, 3, 0, 5,40.00,50.00,Tuesday
9,42147755.72055535
2,3, 1, 3, 0, 5,50.00,60.00,Tuesday
9,44520295.54172559
2,3, 1, 3, 0, 6, 0.00,10.00,Tuesday
9,42795250.22117926
2,3, 1, 3, 0, 6,10.00,20.00,Tuesday
9,41547293.9013228
2,3, 1, 3, 0, 6,20.00,30.00,Tuesday
9,40323179.29861154
2,3, 1, 3, 0, 6,30.00,40.00,Tuesday
9,39183212.65710182
2,3, 1, 3, 0, 6,40.00,50.00,Tuesday
9,38334271.052149594
2,3, 1, 3, 0, 6,50.00,60.00,Tuesday
9,36793937.393257625
2,3, 1, 3, 0, 7, 0.00,10.00,Tuesday
9,35512710.778703555
2,3, 1, 3, 0, 7,10.00,20.00,Tuesday
9,34091809.57532958
2,3, 1, 3, 0, 7,20.00,30.00,Tuesday
9,32962443.132256318
2,3, 1, 3, 0, 7,30.00,40.00,Tuesday
9,30719390.913398467
2,3, 1, 3, 0, 7,40.00,50.00,Tuesday
9,28788536.371786498
2,3, 1, 3, 0, 7,50.00,60.00,Tuesday
9,26678025.679007635
2,3, 1, 3, 0, 8, 0.00,10.00,Tuesday
9,72384403.34047922
2,3, 1, 3, 0, 8,10.00,20.00,Tuesday
9,15407894.29259048
2,3, 1, 3, 0, 8,20.00,30.00,Tuesday
9,43515016.1755921
2,3, 1, 3, 0, 8,30.00,40.00,Tuesday
9,37301766.64071963
2,3, 1, 3, 0, 8,40.00,50.00,Tuesday
9,34114868.03672271
2,3, 1, 3, 0, 8,50.00,60.00,Tuesday
9,33090966.203969464
2,3, 1, 3, 0, 9, 0.00,10.00,Tuesday
9,77404788.71487014
2,3, 1, 3, 0, 9,10.00,20.00,Tuesday
9,39894497.95283333
2,3, 1, 3, 0, 9,20.00,30.00,Tuesday
9,64577933.278886884
2,3, 1, 3, 0, 9,30.00,40.00,Tuesday
9,63120572.538674355
2,3, 1, 3, 0, 9,40.00,50.00,Tuesday
9,65028703.07907561
2,3, 1, 3, 0, 9,50.00,60.00,Tuesday
9,67116551.78480898
2,3, 1, 3, 0,10, 0.00,10.00,Tuesday
9,132014738.24603452
2,3, 1, 3, 0,10,10.00,20.00,Tuesday
9,139547068.23292276
2,3, 1, 3, 0,10,20.00,30.00,Tuesday
9,147572533.47374272
2,3, 1, 3, 0,10,30.00,40.00,Tuesday
9,154404060.65221655
2,3, 1, 3, 0,10,40.00,50.00,Tuesday
9,159989082.509282
2,3, 1, 3, 0,10,50.00,60.00,Tuesday
9,164185923.3936262
2,3, 1, 3, 0,11, 0.00,10.00,Tuesday
9,150536903.14583343
2,3, 1, 3, 0,11,10.00,20.00,Tuesday
9,141036477.56391966
2,3, 1, 3, 0,11,20.00,30.00,Tuesday
9,132233108.78772044
2,3, 1, 3, 0,11,30.00,40.00,Tuesday
9,124129598.7849025
2,3, 1, 3, 0,11,40.00,50.00,Tuesday
9,116270341.82936098
2,3, 1, 3, 0,11,50.00,60.00,Tuesday
9,108557696.71074288
2,3, 1, 3, 0,12, 0.00,10.00,Tuesday
9,107145204.44199888
2,3, 1, 3, 0,12,10.00,20.00,Tuesday
9,106159622.31430225
2,3, 1, 3, 0,12,20.00,30.00,Tuesday
9,105404686.19754238
2,3, 1, 3, 0,12,30.00,40.00,Tuesday
9,104459724.99689448
2,3, 1, 3, 0,12,40.00,50.00,Tuesday
9,103493951.6666053
2,3, 1, 3, 0,12,50.00,60.00,Tuesday
9,102539794.93147276
2,3, 1, 3, 0,13, 0.00,10.00,Tuesday
9,104452071.83631591
2,3, 1, 3, 0,13,10.00,20.00,Tuesday
9,105835007.29669166
2,3, 1, 3, 0,13,20.00,30.00,Tuesday
9,107388680.63798532
2,3, 1, 3, 0,13,30.00,40.00,Tuesday
9,108913578.86230774
2,3, 1, 3, 0,13,40.00,50.00,Tuesday
9,110464057.22063038
2,3, 1, 3, 0,13,50.00,60.00,Tuesday
9,112020461.96533173
2,3, 1, 3, 0,14, 0.00,10.00,Tuesday
9,110227743.50827791
2,3, 1, 3, 0,14,10.00,20.00,Tuesday
9,108513622.53086038
2,3, 1, 3, 0,14,20.00,30.00,Tuesday
9,106837733.75997467
2,3, 1, 3, 0,14,30.00,40.00,Tuesday
9,105035869.58900285
2,3, 1, 3, 0,14,40.00,50.00,Tuesday
9,103201890.90811343
2,3, 1, 3, 0,14,50.00,60.00,Tuesday
9,101439369.5083452
2,3, 1, 3, 0,15, 0.00,10.00,Tuesday
9,104541262.08471075
2,3, 1, 3, 0,15,10.00,20.00,Tuesday
9,107983358.38186176
2,3, 1, 3, 0,15,20.00,30.00,Tuesday
9,111347078.99184321
2,3, 1, 3, 0,15,30.00,40.00,Tuesday
9,114647784.83979815
2,3, 1, 3, 0,15,40.00,50.00,Tuesday
9,117841626.58495778
2,3, 1, 3, 0,15,50.00,60.00,Tuesday
9,121120957.14338435
2,3, 1, 3, 0,16, 0.00,10.00,Tuesday
9,117614725.80257802
2,3, 1, 3, 0,16,10.00,20.00,Tuesday
9,115648637.38858338
2,3, 1, 3, 0,16,20.00,30.00,Tuesday
9,113755455.47464018
2,3, 1, 3, 0,16,30.00,40.00,Tuesday
9,112095294.4139355
2,3, 1, 3, 0,16,40.00,50.00,Tuesday
9,110534085.69095252
2,3, 1, 3, 0,16,50.00,60.00,Tuesday
9,109063537.1403798
2,3, 1, 3, 0,17, 0.00,10.00,Tuesday
9,108578025.47326504
2,3, 1, 3, 0,17,10.00,20.00,Tuesday
9,107836643.17543587
2,3, 1, 3, 0,17,20.00,30.00,Tuesday
9,107554990.48396686
2,3, 1, 3, 0,17,30.00,40.00,Tuesday
9,107951598.19459857
2,3, 1, 3, 0,17,40.00,50.00,Tuesday
9,107331838.20813142
2,3, 1, 3, 0,17,50.00,60.00,Tuesday
9,106448957.40488553
2,3, 1, 3, 0,18, 0.00,10.00,Tuesday
9,110271972.43314165
2,3, 1, 3, 0,18,10.00,20.00,Tuesday
9,112686693.89844517
2,3, 1, 3, 0,18,20.00,30.00,Tuesday
9,114707596.34904084
2,3, 1, 3, 0,18,30.00,40.00,Tuesday
9,116737896.0171709
2,3, 1, 3, 0,18,40.00,50.00,Tuesday
9,118633182.77922177
2,3, 1, 3, 0,18,50.00,60.00,Tuesday
9,120472649.76406163
2,3, 1, 3, 0,19, 0.00,10.00,Tuesday
9,120959277.61484247
2,3, 1, 3, 0,19,10.00,20.00,Tuesday
9,120486625.96272698
2,3, 1, 3, 0,19,20.00,30.00,Tuesday
9,119859059.40978813
2,3, 1, 3, 0,19,30.00,40.00,Tuesday
9,119196556.00466853
2,3, 1, 3, 0,19,40.00,50.00,Tuesday
9,118311858.32603818
2,3, 1, 3, 0,19,50.00,60.00,Tuesday
9,117624416.165156
2,3, 1, 3, 0,20, 0.00,10.00,Tuesday
9,114972928.8990024
2,3, 1, 3, 0,20,10.00,20.00,Tuesday
9,116572597.94413327
2,3, 1, 3, 0,20,20.00,30.00,Tuesday
9,117581104.57914172
2,3, 1, 3, 0,20,30.00,40.00,Tuesday
9,117971620.41298662
2,3, 1, 3, 0,20,40.00,50.00,Tuesday
9,119438307.52180618
2,3, 1, 3, 0,20,50.00,60.00,Tuesday
9,120306466.18916945
2,3, 1, 3, 0,21, 0.00,10.00,Tuesday
9,118819311.92881013
2,3, 1, 3, 0,21,10.00,20.00,Tuesday
9,118360240.9703119
2,3, 1, 3, 0,21,20.00,30.00,Tuesday
9,117945753.72300492
2,3, 1, 3, 0,21,30.00,40.00,Tuesday
9,117167504.22105774
2,3, 1, 3, 0,21,40.00,50.00,Tuesday
9,115738184.21609633
2,3, 1, 3, 0,21,50.00,60.00,Tuesday
9,115368659.64917581
2,3, 1, 3, 0,22, 0.00,10.00,Tuesday
9,3903616.8162873187
2,3, 1, 3, 0,22,10.00,20.00,Tuesday
9,16320812.467975572
2,3, 1, 3, 0,22,20.00,30.00,Tuesday
9,28285888.96936002
2,3, 1, 3, 0,22,30.00,40.00,Tuesday
9,35857704.16577106
2,3, 1, 3, 0,22,40.00,50.00,Tuesday
9,36638140.93403453
2,3, 1, 3, 0,22,50.00,60.00,Tuesday
9,37289360.970378675
2,3, 1, 3, 0,23, 0.00,10.00,Tuesday
9,42729345.36357468
2,3, 1, 3, 0,23,10.00,20.00,Tuesday
9,43652431.96550956
2,3, 1, 3, 0,23,20.00,30.00,Tuesday
9,43902051.875464134
2,3, 1, 3, 0,23,30.00,40.00,Tuesday
9,43972441.9399309
2,3, 1, 3, 0,23,40.00,50.00,Tuesday
9,44339500.11474312
2,3, 1, 3, 0,23,50.00,60.00,Tuesday
9,43922447.906568214
2,3, 1, 3, 0,24, 0.00,10.00,Tuesday
9,46202562.837483115
2,3, 1, 3, 0,24,10.00,20.00,Tuesday
9,46733919.56379783
2,3, 1, 3, 0,24,20.00,30.00,Tuesday
9,46890426.318564735
2,3, 1, 3, 0,24,30.00,40.00,Tuesday
9,47409143.8420797
2,3, 1, 3, 0,24,40.00,50.00,Tuesday
9,46930746.319417246
2,3, 1, 3, 0,24,50.00,60.00,Tuesday
9,46837093.04178266
2,4, 1, 4, 0, 1, 0.00,10.00,Wednesday
9,46592853.576803744
2,4, 1, 4, 0, 1,10.00,20.00,Wednesday
9,45421469.45149387
2,4, 1, 4, 0, 1,20.00,30.00,Wednesday
9,44067743.08638915
2,4, 1, 4, 0, 1,30.00,40.00,Wednesday
9,41982763.596730225
2,4, 1, 4, 0, 1,40.00,50.00,Wednesday
9,40065614.02714981
2,4, 1, 4, 0, 1,50.00,60.00,Wednesday
9,37988502.77504206
2,4, 1, 4, 0, 2, 0.00,10.00,Wednesday
9,39841079.19456704
2,4, 1, 4, 0, 2,10.00,20.00,Wednesday
9,40231291.19787792
2,4, 1, 4, 0, 2,20.00,30.00,Wednesday
9,40980824.296470694
2,4, 1, 4, 0, 2,30.00,40.00,Wednesday
9,41708702.38774437
2,4, 1, 4, 0, 2,40.00,50.00,Wednesday
9,42416195.42259222
2,4, 1, 4, 0, 2,50.00,60.00,Wednesday
9,43556697.23739161
2,4, 1, 4, 0, 3, 0.00,10.00,Wednesday
9,43516535.21628232
2,4, 1, 4, 0, 3,10.00,20.00,Wednesday
9,43544792.58591846
2,4, 1, 4, 0, 3,20.00,30.00,Wednesday
9,43504198.69091712
2,4, 1, 4, 0, 3,30.00,40.00,Wednesday
9,43901359.02017941
2,4, 1, 4, 0, 3,40.00,50.00,Wednesday
9,43368655.50400027
2,4, 1, 4, 0, 3,50.00,60.00,Wednesday
9,43280274.41689339
2,4, 1, 4, 0, 4, 0.00,10.00,Wednesday
9,43620777.336404905
2,4, 1, 4, 0, 4,10.00,20.00,Wednesday
9,43829028.90312482
2,4, 1, 4, 0, 4,20.00,30.00,Wednesday
9,44469106.46988173
2,4, 1, 4, 0, 4,30.00,40.00,Wednesday
9,44199160.269473605
2,4, 1, 4, 0, 4,40.00,50.00,Wednesday
9,44377314.929992065
2,4, 1, 4, 0, 4,50.00,60.00,Wednesday
9,44552510.13955266
2,4, 1, 4, 0, 5, 0.00,10.00,Wednesday
9,42444887.76910257
2,4, 1, 4, 0, 5,10.00,20.00,Wednesday
9,40159210.14057608
2,4, 1, 4, 0, 5,20.00,30.00,Wednesday
9,37613763.11700967
2,4, 1, 4, 0, 5,30.00,40.00,Wednesday
9,35394332.19623375
2,4, 1, 4, 0, 5,40.00,50.00,Wednesday
9,33248378.039741904
2,4, 1, 4, 0, 5,50.00,60.00,Wednesday
9,31632439.482973095
2,4, 1, 4, 0, 6, 0.00,10.00,Wednesday
9,32359621.24644133
2,4, 1, 4, 0, 6,10.00,20.00,Wednesday
9,33641793.45742934
2,4, 1, 4, 0, 6,20.00,30.00,Wednesday
9,34997741.46673636
2,4, 1, 4, 0, 6,30.00,40.00,Wednesday
9,36419967.35561885
2,4, 1, 4, 0, 6,40.00,50.00,Wednesday
9,38354317.606968194
2,4, 1, 4, 0, 6,50.00,60.00,Wednesday
9,39418518.49652464
2,4, 1, 4, 0, 7, 0.00,10.00,Wednesday
9,38709975.668039046
2,4, 1, 4, 0, 7,10.00,20.00,Wednesday
9,37778078.16594835
2,4, 1, 4, 0, 7,20.00,30.00,Wednesday
9,37272137.90163233
2,4, 1, 4, 0, 7,30.00,40.00,Wednesday
9,35849954.17139564
2,4, 1, 4, 0, 7,40.00,50.00,Wednesday
9,34884700.49444769
2,4, 1, 4, 0, 7,50.00,60.00,Wednesday
9,33924880.39478868
2,4, 1, 4, 0, 8, 0.00,10.00,Wednesday
9,81957357.74053419
2,4, 1, 4, 0, 8,10.00,20.00,Wednesday
9,25437423.344272625
2,4, 1, 4, 0, 8,20.00,30.00,Wednesday
9,62924625.44847033
2,4, 1, 4, 0, 8,30.00,40.00,Wednesday
9,54225210.6086514
2,4, 1, 4, 0, 8,40.00,50.00,Wednesday
9,55249765.95577069
2,4, 1, 4, 0, 8,50.00,60.00,Wednesday
9,56409337.14715688
2,4, 1, 4, 0, 9, 0.00,10.00,Wednesday
9,97037498.20987587
2,4, 1, 4, 0, 9,10.00,20.00,Wednesday
9,56800216.04800348
2,4, 1, 4, 0, 9,20.00,30.00,Wednesday
9,73230993.42835197
2,4, 1, 4, 0, 9,30.00,40.00,Wednesday
9,68015812.5023189
2,4, 1, 4, 0, 9,40.00,50.00,Wednesday
9,64974287.278748415
2,4, 1, 4, 0, 9,50.00,60.00,Wednesday
9,62333258.83837582
2,4, 1, 4, 0,10, 0.00,10.00,Wednesday
9,114513377.76035638
2,4, 1, 4, 0,10,10.00,20.00,Wednesday
9,111974488.67534158
2,4, 1, 4, 0,10,20.00,30.00,Wednesday
9,111474340.30026197
2,4, 1, 4, 0,10,30.00,40.00,Wednesday
9,110745084.70499435
2,4, 1, 4, 0,10,40.00,50.00,Wednesday
9,109947714.57303935
2,4, 1, 4, 0,10,50.00,60.00,Wednesday
9,109303412.23422743
2,4, 1, 4, 0,11, 0.00,10.00,Wednesday
9,102438062.11331274
2,4, 1, 4, 0,11,10.00,20.00,Wednesday
9,98248753.97690663
2,4, 1, 4, 0,11,20.00,30.00,Wednesday
9,94468435.70355612
2,4, 1, 4, 0,11,30.00,40.00,Wednesday
9,90779547.27770153
2,4, 1, 4, 0,11,40.00,50.00,Wednesday
9,87129044.75663659
2,4, 1, 4, 0,11,50.00,60.00,Wednesday
9,83492170.88521151
2,4, 1, 4, 0,12, 0.00,10.00,Wednesday
9,85556538.9986502
2,4, 1, 4, 0,12,10.00,20.00,Wednesday
9,88433162.56621043
2,4, 1, 4, 0,12,20.00,30.00,Wednesday
9,91332404.58084501
2,4, 1, 4, 0,12,30.00,40.00,Wednesday
9,93771639.26368976
2,4, 1, 4, 0,12,40.00,50.00,Wednesday
9,95976044.60188706
2,4, 1, 4, 0,12,50.00,60.00,Wednesday
9,98008349.69555104
2,4, 1, 4, 0,13, 0.00,10.00,Wednesday
9,91069651.33047222
2,4, 1, 4, 0,13,10.00,20.00,Wednesday
9,86175221.87912217
2,4, 1, 4, 0,13,20.00,30.00,Wednesday
9,81908298.93853036
2,4, 1, 4, 0,13,30.00,40.00,Wednesday
9,77956803.08841984
2,4, 1, 4, 0,13,40.00,50.00,Wednesday
9,74074832.73183736
2,4, 1, 4, 0,13,50.00,60.00,Wednesday
9,70289983.82128772
2,4, 1, 4, 0,14, 0.00,10.00,Wednesday
9,68825642.13765731
2,4, 1, 4, 0,14,10.00,20.00,Wednesday
9,68706312.29942808
2,4, 1, 4, 0,14,20.00,30.00,Wednesday
9,68840979.80655383
2,4, 1, 4, 0,14,30.00,40.00,Wednesday
9,68939949.11143425
2,4, 1, 4, 0,14,40.00,50.00,Wednesday
9,68950369.67894572
2,4, 1, 4, 0,14,50.00,60.00,Wednesday
9,69060447.33935331
2,4, 1, 4, 0,15, 0.00,10.00,Wednesday
9,65095634.501996785
2,4, 1, 4, 0,15,10.00,20.00,Wednesday
9,62894348.88683739
2,4, 1, 4, 0,15,20.00,30.00,Wednesday
9,60962666.59908886
2,4, 1, 4, 0,15,30.00,40.00,Wednesday
9,59243602.05262552
2,4, 1, 4, 0,15,40.00,50.00,Wednesday
9,57636149.93920929