Program Version,EnergyPlus, Version 23.2.0-7636e6b3e9, YMD=2025.01.14 17:14
1,5,Environment Title[],Latitude[deg],Longitude[deg],Time Zone[],Elevation[m]
2,8,Day of Simulation[],Month[],Day of Month[],DST Indicator[1=yes 0=no],Hour[],StartMinute[],EndMinute[],DayType
3,5,Cumulative Day of Simulation[],Month[],Day of Month[],DST Indicator[1=yes 0=no],DayType  ! When Daily Report Variables Requested
4,2,Cumulative Days of Simulation[],Month[]  ! When Monthly Report Variables Requested
5,1,Cumulative Days of Simulation[] ! When Run Period Report Variables Requested
6,1,Calendar Year of Simulation[] ! When Annual Report Variables Requested
8,1,Electricity:Facility [J] !TimeStep
End of Data Dictionary
1,RUN PERIOD 1,  45.84, -75.65,  -5.00, 194.60
2,1, 1, 1, 0, 1, 0.00,10.00,Wednesday
8,28814734.364937738
2,1, 1, 1, 0, 1,10.00,20.00,Wednesday
8,28090241.537412435
2,1, 1, 1, 0, 1,20.00,30.00,Wednesday
8,26619399.04597959
2,1, 1, 1, 0, 1,30.00,40.00,Wednesday
8,24991891.41928322
2,1, 1, 1, 0, 1,40.00,50.00,Wednesday
8,22340392.695434444
2,1, 1, 1, 0, 1,50.00,60.00,Wednesday
8,19085021.2334778
2,1, 1, 1, 0, 2, 0.00,10.00,Wednesday
8,20607184.829558223
2,1, 1, 1, 0, 2,10.00,20.00,Wednesday
8,21500337.287121702
2,1, 1, 1, 0, 2,20.00,30.00,Wednesday
8,21933094.77472696
2,1, 1, 1, 0, 2,30.00,40.00,Wednesday
8,22025137.657914832
2,1, 1, 1, 0, 2,40.00,50.00,Wednesday
8,22355469.617884606
2,1, 1, 1, 0, 2,50.00,60.00,Wednesday
8,22873619.030809917
2,1, 1, 1, 0, 3, 0.00,10.00,Wednesday
8,23561817.55812251
2,1, 1, 1, 0, 3,10.00,20.00,Wednesday
8,23541483.76208758
2,1, 1, 1, 0, 3,20.00,30.00,Wednesday
8,23815359.07207091
2,1, 1, 1, 0, 3,30.00,40.00,Wednesday
8,24266924.94513219
2,1, 1, 1, 0, 3,40.00,50.00,Wednesday
8,24716423.833143707
2,1, 1, 1, 0, 3,50.00,60.00,Wednesday
8,24595116.451169413
2,1, 1, 1, 0, 4, 0.00,10.00,Wednesday
8,25027891.132808898
2,1, 1, 1, 0, 4,10.00,20.00,Wednesday
8,25417866.001176722
2,1, 1, 1, 0, 4,20.00,30.00,Wednesday
8,25854493.438250102
2,1, 1, 1, 0, 4,30.00,40.00,Wednesday
8,25634993.883822367
2,1, 1, 1, 0, 4,40.00,50.00,Wednesday
8,25806395.174466528
2,1, 1, 1, 0, 4,50.00,60.00,Wednesday
8,26107921.65386227
2,1, 1, 1, 0, 5, 0.00,10.00,Wednesday
8,26831095.659277078
2,1, 1, 1, 0, 5,10.00,20.00,Wednesday
8,26791904.946004726
2,1, 1, 1, 0, 5,20.00,30.00,Wednesday
8,27156967.890323486
2,1, 1, 1, 0, 5,30.00,40.00,Wednesday
8,27639796.515981276
2,1, 1, 1, 0, 5,40.00,50.00,Wednesday
8,28303816.364973985
2,1, 1, 1, 0, 5,50.00,60.00,Wednesday
8,28222219.004609957
2,1, 1, 1, 0, 6, 0.00,10.00,Wednesday
8,28153187.868644547
2,1, 1, 1, 0, 6,10.00,20.00,Wednesday
8,28269596.88360395
2,1, 1, 1, 0, 6,20.00,30.00,Wednesday
8,28619771.720599357
2,1, 1, 1, 0, 6,30.00,40.00,Wednesday
8,28207432.253485132
2,1, 1, 1, 0, 6,40.00,50.00,Wednesday
8,28241681.79395889
2,1, 1, 1, 0, 6,50.00,60.00,Wednesday
8,28385554.832155067
2,1, 1, 1, 0, 7, 0.00,10.00,Wednesday
8,28952716.65427054
2,1, 1, 1, 0, 7,10.00,20.00,Wednesday
8,28669973.193405807
2,1, 1, 1, 0, 7,20.00,30.00,Wednesday
8,28821216.632399235
2,1, 1, 1, 0, 7,30.00,40.00,Wednesday
8,29069015.28171195
2,1, 1, 1, 0, 7,40.00,50.00,Wednesday
8,29563902.768113207
2,1, 1, 1, 0, 7,50.00,60.00,Wednesday
8,29251788.050670087
2,1, 1, 1, 0, 8, 0.00,10.00,Wednesday
8,83422820.86049071
2,1, 1, 1, 0, 8,10.00,20.00,Wednesday
8,23008533.630899966
2,1, 1, 1, 0, 8,20.00,30.00,Wednesday
8,50557098.90820262
2,1, 1, 1, 0, 8,30.00,40.00,Wednesday
8,49888299.562423624
2,1, 1, 1, 0, 8,40.00,50.00,Wednesday
8,46062593.589491986
2,1, 1, 1, 0, 8,50.00,60.00,Wednesday
8,45288391.00958216
2,1, 1, 1, 0, 9, 0.00,10.00,Wednesday
8,92772104.61287607
2,1, 1, 1, 0, 9,10.00,20.00,Wednesday
8,74458251.76919472
2,1, 1, 1, 0, 9,20.00,30.00,Wednesday
8,60836013.28604073
2,1, 1, 1, 0, 9,30.00,40.00,Wednesday
8,58011557.57399513
2,1, 1, 1, 0, 9,40.00,50.00,Wednesday
8,56724177.93295494
2,1, 1, 1, 0, 9,50.00,60.00,Wednesday
8,54597737.73310422
2,1, 1, 1, 0,10, 0.00,10.00,Wednesday
8,108131601.57447267
2,1, 1, 1, 0,10,10.00,20.00,Wednesday
8,106306290.5528756
2,1, 1, 1, 0,10,20.00,30.00,Wednesday
8,105464725.68809779
2,1, 1, 1, 0,10,30.00,40.00,Wednesday
8,104697243.09211576
2,1, 1, 1, 0,10,40.00,50.00,Wednesday
8,104259160.44932686
2,1, 1, 1, 0,10,50.00,60.00,Wednesday
8,104142515.34095955
2,1, 1, 1, 0,11, 0.00,10.00,Wednesday
8,101527323.97547139
2,1, 1, 1, 0,11,10.00,20.00,Wednesday
8,101190060.23701608
2,1, 1, 1, 0,11,20.00,30.00,Wednesday
8,101238513.2982401
2,1, 1, 1, 0,11,30.00,40.00,Wednesday
8,101261624.8426809
2,1, 1, 1, 0,11,40.00,50.00,Wednesday
8,101327201.41694656
2,1, 1, 1, 0,11,50.00,60.00,Wednesday
8,101431030.34883885
2,1, 1, 1, 0,12, 0.00,10.00,Wednesday
8,101021715.71163991
2,1, 1, 1, 0,12,10.00,20.00,Wednesday
8,101351268.03046228
2,1, 1, 1, 0,12,20.00,30.00,Wednesday
8,101650552.08007355
2,1, 1, 1, 0,12,30.00,40.00,Wednesday
8,102161800.0362332
2,1, 1, 1, 0,12,40.00,50.00,Wednesday
8,102752655.00068037
2,1, 1, 1, 0,12,50.00,60.00,Wednesday
8,103366096.02997546
2,1, 1, 1, 0,13, 0.00,10.00,Wednesday
8,103795823.96172318
2,1, 1, 1, 0,13,10.00,20.00,Wednesday
8,104021514.40938647
2,1, 1, 1, 0,13,20.00,30.00,Wednesday
8,104424659.4793234
2,1, 1, 1, 0,13,30.00,40.00,Wednesday
8,104759803.40381372
2,1, 1, 1, 0,13,40.00,50.00,Wednesday
8,105074143.81817181
2,1, 1, 1, 0,13,50.00,60.00,Wednesday
8,105300162.48098557
2,1, 1, 1, 0,14, 0.00,10.00,Wednesday
8,104728750.00881505
2,1, 1, 1, 0,14,10.00,20.00,Wednesday
8,104375404.86364679
2,1, 1, 1, 0,14,20.00,30.00,Wednesday
8,104059489.69248535
2,1, 1, 1, 0,14,30.00,40.00,Wednesday
8,103822206.40288788
2,1, 1, 1, 0,14,40.00,50.00,Wednesday
8,103606713.84736563
2,1, 1, 1, 0,14,50.00,60.00,Wednesday
8,103394545.39629456
2,1, 1, 1, 0,15, 0.00,10.00,Wednesday
8,103309811.46234427
2,1, 1, 1, 0,15,10.00,20.00,Wednesday
8,103358543.98558861
2,1, 1, 1, 0,15,20.00,30.00,Wednesday
8,103427269.50082713
2,1, 1, 1, 0,15,30.00,40.00,Wednesday
8,103596890.80801499
2,1, 1, 1, 0,15,40.00,50.00,Wednesday
8,103816288.69807439
2,1, 1, 1, 0,15,50.00,60.00,Wednesday
8,104067129.69592854
2,1, 1, 1, 0,16, 0.00,10.00,Wednesday
8,104551363.30174056
2,1, 1, 1, 0,16,10.00,20.00,Wednesday
8,104858917.00048213
2,1, 1, 1, 0,16,20.00,30.00,Wednesday
8,105128019.65736632
2,1, 1, 1, 0,16,30.00,40.00,Wednesday
8,105278321.82462908
2,1, 1, 1, 0,16,40.00,50.00,Wednesday
8,105373787.25789739
2,1, 1, 1, 0,16,50.00,60.00,Wednesday
8,105447774.99157278
2,1, 1, 1, 0,17, 0.00,10.00,Wednesday
8,106074750.09332985
2,1, 1, 1, 0,17,10.00,20.00,Wednesday
8,106488044.28205705
2,1, 1, 1, 0,17,20.00,30.00,Wednesday
8,106792813.77456835
2,1, 1, 1, 0,17,30.00,40.00,Wednesday
8,107047551.75990494
2,1, 1, 1, 0,17,40.00,50.00,Wednesday
8,107269625.01410405
2,1, 1, 1, 0,17,50.00,60.00,Wednesday
8,106900316.37480378
2,1, 1, 1, 0,18, 0.00,10.00,Wednesday
8,107008756.75612697
2,1, 1, 1, 0,18,10.00,20.00,Wednesday
8,107138568.55287956
2,1, 1, 1, 0,18,20.00,30.00,Wednesday
8,107244718.87645411
2,1, 1, 1, 0,18,30.00,40.00,Wednesday
8,107265746.60777684
2,1, 1, 1, 0,18,40.00,50.00,Wednesday
8,107277953.94558965
2,1, 1, 1, 0,18,50.00,60.00,Wednesday
8,107282351.02047701
2,1, 1, 1, 0,19, 0.00,10.00,Wednesday
8,106843922.8776539
2,1, 1, 1, 0,19,10.00,20.00,Wednesday
8,106722473.55578335
2,1, 1, 1, 0,19,20.00,30.00,Wednesday
8,106036607.35030423
2,1, 1, 1, 0,19,30.00,40.00,Wednesday
8,105941567.61958735
2,1, 1, 1, 0,19,40.00,50.00,Wednesday
8,105960088.40435636
2,1, 1, 1, 0,19,50.00,60.00,Wednesday
8,105675572.87062888
2,1, 1, 1, 0,20, 0.00,10.00,Wednesday
8,86238693.29340431
2,1, 1, 1, 0,20,10.00,20.00,Wednesday
8,85964508.22194187
2,1, 1, 1, 0,20,20.00,30.00,Wednesday
8,86837553.05405712
2,1, 1, 1, 0,20,30.00,40.00,Wednesday
8,86991166.12987413
2,1, 1, 1, 0,20,40.00,50.00,Wednesday
8,89044711.93992998
2,1, 1, 1, 0,20,50.00,60.00,Wednesday
8,89074730.60362549
2,1, 1, 1, 0,21, 0.00,10.00,Wednesday
8,87979153.40090261
2,1, 1, 1, 0,21,10.00,20.00,Wednesday
8,89086288.93052769
2,1, 1, 1, 0,21,20.00,30.00,Wednesday
8,88848421.9764672
2,1, 1, 1, 0,21,30.00,40.00,Wednesday
8,88384669.92227201
2,1, 1, 1, 0,21,40.00,50.00,Wednesday
8,88654247.87425163
2,1, 1, 1, 0,21,50.00,60.00,Wednesday
8,87895841.01109852
2,1, 1, 1, 0,22, 0.00,10.00,Wednesday
8,7227369.913981292
2,1, 1, 1, 0,22,10.00,20.00,Wednesday
8,8380734.027974144
2,1, 1, 1, 0,22,20.00,30.00,Wednesday
8,9311455.9602711
2,1, 1, 1, 0,22,30.00,40.00,Wednesday
8,9813580.380577834
2,1, 1, 1, 0,22,40.00,50.00,Wednesday
8,11183968.938819617
2,1, 1, 1, 0,22,50.00,60.00,Wednesday
8,19256142.13470176
2,1, 1, 1, 0,23, 0.00,10.00,Wednesday
8,23257154.83027498
2,1, 1, 1, 0,23,10.00,20.00,Wednesday
8,21452739.058840014
2,1, 1, 1, 0,23,20.00,30.00,Wednesday
8,23917441.50225511
2,1, 1, 1, 0,23,30.00,40.00,Wednesday
8,23847735.525382012
2,1, 1, 1, 0,23,40.00,50.00,Wednesday
8,24278696.870509725
2,1, 1, 1, 0,23,50.00,60.00,Wednesday
8,24663336.62978815
2,1, 1, 1, 0,24, 0.00,10.00,Wednesday
8,27542259.276322633
2,1, 1, 1, 0,24,10.00,20.00,Wednesday
8,27831259.486026518
2,1, 1, 1, 0,24,20.00,30.00,Wednesday
8,28273865.58232778
2,1, 1, 1, 0,24,30.00,40.00,Wednesday
8,28663792.350588657
2,1, 1, 1, 0,24,40.00,50.00,Wednesday
8,29541925.43074684
2,1, 1, 1, 0,24,50.00,60.00,Wednesday
8,29265371.316279568
2,2, 1, 2, 0, 1, 0.00,10.00,Thursday
8,30883775.235782083
2,2, 1, 2, 0, 1,10.00,20.00,Thursday
8,31757832.503741283
2,2, 1, 2, 0, 1,20.00,30.00,Thursday
8,32967641.371028572
2,2, 1, 2, 0, 1,30.00,40.00,Thursday
8,33115748.252941456
2,2, 1, 2, 0, 1,40.00,50.00,Thursday
8,33771024.142192274
2,2, 1, 2, 0, 1,50.00,60.00,Thursday
8,34458327.639022455
2,2, 1, 2, 0, 2, 0.00,10.00,Thursday
8,35799999.148447976
2,2, 1, 2, 0, 2,10.00,20.00,Thursday
8,35791122.539510116
2,2, 1, 2, 0, 2,20.00,30.00,Thursday
8,36218800.40228087
2,2, 1, 2, 0, 2,30.00,40.00,Thursday
8,36702888.45557099
2,2, 1, 2, 0, 2,40.00,50.00,Thursday
8,37528011.5219967
2,2, 1, 2, 0, 2,50.00,60.00,Thursday
8,37438940.64727727
2,2, 1, 2, 0, 3, 0.00,10.00,Thursday
8,38013165.35425485
2,2, 1, 2, 0, 3,10.00,20.00,Thursday
8,38446718.70146653
2,2, 1, 2, 0, 3,20.00,30.00,Thursday
8,39152088.33035832
2,2, 1, 2, 0, 3,30.00,40.00,Thursday
8,38985504.32603831
2,2, 1, 2, 0, 3,40.00,50.00,Thursday
8,39286680.40969015
2,2, 1, 2, 0, 3,50.00,60.00,Thursday
8,39674644.02620741
2,2, 1, 2, 0, 4, 0.00,10.00,Thursday
8,40460258.08779266
2,2, 1, 2, 0, 4,10.00,20.00,Thursday
8,40270539.89423008
2,2, 1, 2, 0, 4,20.00,30.00,Thursday
8,40520080.291734755
2,2, 1, 2, 0, 4,30.00,40.00,Thursday
8,40863102.35771002
2,2, 1, 2, 0, 4,40.00,50.00,Thursday
8,41462889.261019394
2,2, 1, 2, 0, 4,50.00,60.00,Thursday
8,41244076.899562575
2,2, 1, 2, 0, 5, 0.00,10.00,Thursday
8,41575578.54035846
2,2, 1, 2, 0, 5,10.00,20.00,Thursday
8,41950396.27850669
2,2, 1, 2, 0, 5,20.00,30.00,Thursday
8,42559960.648047924
2,2, 1, 2, 0, 5,30.00,40.00,Thursday
8,42365592.085924394
2,2, 1, 2, 0, 5,40.00,50.00,Thursday
8,42619568.64337616
2,2, 1, 2, 0, 5,50.00,60.00,Thursday
8,42976927.60928182
2,2, 1, 2, 0, 6, 0.00,10.00,Thursday
8,43263507.953740165
2,2, 1, 2, 0, 6,10.00,20.00,Thursday
8,42714784.00350333
2,2, 1, 2, 0, 6,20.00,30.00,Thursday
8,42608856.350014865
2,2, 1, 2, 0, 6,30.00,40.00,Thursday
8,42611958.98067143
2,2, 1, 2, 0, 6,40.00,50.00,Thursday
8,42841510.72901478
2,2, 1, 2, 0, 6,50.00,60.00,Thursday
8,42287899.505189866
2,2, 1, 2, 0, 7, 0.00,10.00,Thursday
8,42087762.61082058
2,2, 1, 2, 0, 7,10.00,20.00,Thursday
8,41910762.14064404
2,2, 1, 2, 0, 7,20.00,30.00,Thursday
8,41936940.086043134
2,2, 1, 2, 0, 7,30.00,40.00,Thursday
8,41180093.028116226
2,2, 1, 2, 0, 7,40.00,50.00,Thursday
8,40862630.31545047
2,2, 1, 2, 0, 7,50.00,60.00,Thursday
8,40653668.777790785
2,2, 1, 2, 0, 8, 0.00,10.00,Thursday
8,94063749.57536113
2,2, 1, 2, 0, 8,10.00,20.00,Thursday
8,62129104.03550744
2,2, 1, 2, 0, 8,20.00,30.00,Thursday
8,65939004.261695765
2,2, 1, 2, 0, 8,30.00,40.00,Thursday
8,59975860.685904704
2,2, 1, 2, 0, 8,40.00,50.00,Thursday
8,58773610.89613244
2,2, 1, 2, 0, 8,50.00,60.00,Thursday
8,57000595.36554926
2,2, 1, 2, 0, 9, 0.00,10.00,Thursday
8,105415587.66011308
2,2, 1, 2, 0, 9,10.00,20.00,Thursday
8,89166821.14062713
2,2, 1, 2, 0, 9,20.00,30.00,Thursday
8,73601884.91623439
2,2, 1, 2, 0, 9,30.00,40.00,Thursday
8,71956706.71983019
2,2, 1, 2, 0, 9,40.00,50.00,Thursday
8,70310257.53747417
2,2, 1, 2, 0, 9,50.00,60.00,Thursday
8,68993022.85504101
2,2, 1, 2, 0,10, 0.00,10.00,Thursday
8,117683351.37630804
2,2, 1, 2, 0,10,10.00,20.00,Thursday
8,115356535.36412156
2,2, 1, 2, 0,10,20.00,30.00,Thursday
8,114079733.5045429
2,2, 1, 2, 0,10,30.00,40.00,Thursday
8,113630459.97238512
2,2, 1, 2, 0,10,40.00,50.00,Thursday
8,113387929.91796665
2,2, 1, 2, 0,10,50.00,60.00,Thursday
8,113399067.89158037
2,2, 1, 2, 0,11, 0.00,10.00,Thursday
8,111071023.64629474
2,2, 1, 2, 0,11,10.00,20.00,Thursday
8,111537231.9075017
2,2, 1, 2, 0,11,20.00,30.00,Thursday
8,112417785.16147074
2,2, 1, 2, 0,11,30.00,40.00,Thursday
8,113087000.1991694
2,2, 1, 2, 0,11,40.00,50.00,Thursday
8,113650945.85255387
2,2, 1, 2, 0,11,50.00,60.00,Thursday
8,114226044.04047066
2,2, 1, 2, 0,12, 0.00,10.00,Thursday
8,114262439.56936105
2,2, 1, 2, 0,12,10.00,20.00,Thursday
8,114772118.07494119
2,2, 1, 2, 0,12,20.00,30.00,Thursday
8,115369988.45575835
2,2, 1, 2, 0,12,30.00,40.00,Thursday
8,116112490.5674506
2,2, 1, 2, 0,12,40.00,50.00,Thursday
8,116912589.75981951
2,2, 1, 2, 0,12,50.00,60.00,Thursday
8,117863829.4812593
2,2, 1, 2, 0,13, 0.00,10.00,Thursday
8,118840290.82255436
2,2, 1, 2, 0,13,10.00,20.00,Thursday
8,119585413.45357825
2,2, 1, 2, 0,13,20.00,30.00,Thursday
8,120477705.32807109
2,2, 1, 2, 0,13,30.00,40.00,Thursday
8,121324709.33339459
2,2, 1, 2, 0,13,40.00,50.00,Thursday
8,122161973.02017769
2,2, 1, 2, 0,13,50.00,60.00,Thursday
8,122997489.85808049
2,2, 1, 2, 0,14, 0.00,10.00,Thursday
8,123737016.44022107
2,2, 1, 2, 0,14,10.00,20.00,Thursday
8,124397266.33583497
2,2, 1, 2, 0,14,20.00,30.00,Thursday
8,125069985.18796591
2,2, 1, 2, 0,14,30.00,40.00,Thursday
8,125731357.35998577
2,2, 1, 2, 0,14,40.00,50.00,Thursday
8,126315061.76338491
2,2, 1, 2, 0,14,50.00,60.00,Thursday
8,126954336.19032694
2,2, 1, 2, 0,15, 0.00,10.00,Thursday
8,127443417.49251756
2,2, 1, 2, 0,15,10.00,20.00,Thursday
8,127971183.1569212
2,2, 1, 2, 0,15,20.00,30.00,Thursday
8,128496484.64461875
2,2, 1, 2, 0,15,30.00,40.00,Thursday
8,129176445.57812239
2,2, 1, 2, 0,15,40.00,50.00,Thursday
8,129912969.76978569
2,2, 1, 2, 0,15,50.00,60.00,Thursday
8,130682319.86986424
2,2, 1, 2, 0,16, 0.00,10.00,Thursday
8,131658151.74455251
2,2, 1, 2, 0,16,10.00,20.00,Thursday
8,132483709.42642921
2,2, 1, 2, 0,16,20.00,30.00,Thursday
8,133319876.11111668
2,2, 1, 2, 0,16,30.00,40.00,Thursday
8,134045727.55644749
2,2, 1, 2, 0,16,40.00,50.00,Thursday
8,134730191.9060038
2,2, 1, 2, 0,16,50.00,60.00,Thursday
8,135397980.19590235
2,2, 1, 2, 0,17, 0.00,10.00,Thursday
8,136071915.23559734
2,2, 1, 2, 0,17,10.00,20.00,Thursday
8,136516715.209434
2,2, 1, 2, 0,17,20.00,30.00,Thursday
8,136862734.5243144
2,2, 1, 2, 0,17,30.00,40.00,Thursday
8,137127697.2767494
2,2, 1, 2, 0,17,40.00,50.00,Thursday
8,137342335.08410445
2,2, 1, 2, 0,17,50.00,60.00,Thursday
8,136957358.87304556
2,2, 1, 2, 0,18, 0.00,10.00,Thursday
8,137466364.96537238
2,2, 1, 2, 0,18,10.00,20.00,Thursday
8,137898255.10606423
2,2, 1, 2, 0,18,20.00,30.00,Thursday
8,138170643.88753018
2,2, 1, 2, 0,18,30.00,40.00,Thursday
8,138405778.60700786
2,2, 1, 2, 0,18,40.00,50.00,Thursday
8,138628683.47301257
2,2, 1, 2, 0,18,50.00,60.00,Thursday
8,138841108.16057152
2,2, 1, 2, 0,19, 0.00,10.00,Thursday
8,139441878.76550624
2,2, 1, 2, 0,19,10.00,20.00,Thursday
8,140191006.815596
2,2, 1, 2, 0,19,20.00,30.00,Thursday
8,140482893.36536685
2,2, 1, 2, 0,19,30.00,40.00,Thursday
8,141416948.63500074
2,2, 1, 2, 0,19,40.00,50.00,Thursday
8,142278043.36624512
2,2, 1, 2, 0,19,50.00,60.00,Thursday
8,142922672.82081252
2,2, 1, 2, 0,20, 0.00,10.00,Thursday
8,119840517.57880268
2,2, 1, 2, 0,20,10.00,20.00,Thursday
8,127897143.68317838
2,2, 1, 2, 0,20,20.00,30.00,Thursday
8,134498956.74323905
2,2, 1, 2, 0,20,30.00,40.00,Thursday
8,128990855.06024273
2,2, 1, 2, 0,20,40.00,50.00,Thursday
8,132430229.35124609
2,2, 1, 2, 0,20,50.00,60.00,Thursday
8,133478163.95766361
2,2, 1, 2, 0,21, 0.00,10.00,Thursday
8,133975565.76102789
2,2, 1, 2, 0,21,10.00,20.00,Thursday
8,135928623.7941381
2,2, 1, 2, 0,21,20.00,30.00,Thursday
8,136633686.58438715
2,2, 1, 2, 0,21,30.00,40.00,Thursday
8,137341081.95639884
2,2, 1, 2, 0,21,40.00,50.00,Thursday
8,138556902.08971462
2,2, 1, 2, 0,21,50.00,60.00,Thursday
8,138744826.83659577
2,2, 1, 2, 0,22, 0.00,10.00,Thursday
8,14564688.263691697
2,2, 1, 2, 0,22,10.00,20.00,Thursday
8,18366848.941839572
2,2, 1, 2, 0,22,20.00,30.00,Thursday
8,27502135.808019787
2,2, 1, 2, 0,22,30.00,40.00,Thursday
8,35850759.25513726
2,2, 1, 2, 0,22,40.00,50.00,Thursday
8,46334238.3796839
2,2, 1, 2, 0,22,50.00,60.00,Thursday
8,48160525.326800376
2,2, 1, 2, 0,23, 0.00,10.00,Thursday
8,51775505.66836482
2,2, 1, 2, 0,23,10.00,20.00,Thursday
8,53961651.22357113
2,2, 1, 2, 0,23,20.00,30.00,Thursday
8,55233007.42344175
2,2, 1, 2, 0,23,30.00,40.00,Thursday
8,55331335.87814058
2,2, 1, 2, 0,23,40.00,50.00,Thursday
8,55855283.19166902
2,2, 1, 2, 0,23,50.00,60.00,Thursday
8,56279818.06529669
2,2, 1, 2, 0,24, 0.00,10.00,Thursday
8,59079656.269738704
2,2, 1, 2, 0,24,10.00,20.00,Thursday
8,59044590.43262682
2,2, 1, 2, 0,24,20.00,30.00,Thursday
8,59192485.567391835
2,2, 1, 2, 0,24,30.00,40.00,Thursday
8,59277198.52224303
2,2, 1, 2, 0,24,40.00,50.00,Thursday
8,59844730.3847583
2,2, 1, 2, 0,24,50.00,60.00,Thursday
8,59254051.754514895
2,3, 1, 3, 0, 1, 0.00,10.00,Friday
8,60138903.23221136
2,3, 1, 3, 0, 1,10.00,20.00,Friday
8,60195134.93232025
2,3, 1, 3, 0, 1,20.00,30.00,Friday
8,60633818.39479702
2,3, 1, 3, 0, 1,30.00,40.00,Friday
8,59950843.12381183
2,3, 1, 3, 0, 1,40.00,50.00,Friday
8,59784020.36059036
2,3, 1, 3, 0, 1,50.00,60.00,Friday
8,59637522.09395104
2,3, 1, 3, 0, 2, 0.00,10.00,Friday
8,60893974.98807891
2,3, 1, 3, 0, 2,10.00,20.00,Friday
8,60848284.98459526
2,3, 1, 3, 0, 2,20.00,30.00,Friday
8,61261549.01731146
2,3, 1, 3, 0, 2,30.00,40.00,Friday
8,61739917.56853925
2,3, 1, 3, 0, 2,40.00,50.00,Friday
8,62548863.48252545
2,3, 1, 3, 0, 2,50.00,60.00,Friday
8,62457674.14879348
2,3, 1, 3, 0, 3, 0.00,10.00,Friday
8,63059811.37513907
2,3, 1, 3, 0, 3,10.00,20.00,Friday
8,63504370.27116233
2,3, 1, 3, 0, 3,20.00,30.00,Friday
8,64182860.42587167
2,3, 1, 3, 0, 3,30.00,40.00,Friday
8,64018761.149351805
2,3, 1, 3, 0, 3,40.00,50.00,Friday
8,64310004.153755374
2,3, 1, 3, 0, 3,50.00,60.00,Friday
8,64701912.87616969
2,3, 1, 3, 0, 4, 0.00,10.00,Friday
8,65586714.09203887
2,3, 1, 3, 0, 4,10.00,20.00,Friday
8,65529954.13362894
2,3, 1, 3, 0, 4,20.00,30.00,Friday
8,65896270.02057266
2,3, 1, 3, 0, 4,30.00,40.00,Friday
8,66373722.289975874
2,3, 1, 3, 0, 4,40.00,50.00,Friday
8,67052771.421709344
2,3, 1, 3, 0, 4,50.00,60.00,Friday
8,66966947.64317792
2,3, 1, 3, 0, 5, 0.00,10.00,Friday
8,66814707.117083095
2,3, 1, 3, 0, 5,10.00,20.00,Friday
8,66720020.90132311
2,3, 1, 3, 0, 5,20.00,30.00,Friday
8,66800528.982646905
2,3, 1, 3, 0, 5,30.00,40.00,Friday
8,66138407.16320585
2,3, 1, 3, 0, 5,40.00,50.00,Friday
8,65905625.071551636
2,3, 1, 3, 0, 5,50.00,60.00,Friday
8,65798660.67128332
2,3, 1, 3, 0, 6, 0.00,10.00,Friday
8,66074242.70397912
2,3, 1, 3, 0, 6,10.00,20.00,Friday
8,65551018.9259259
2,3, 1, 3, 0, 6,20.00,30.00,Friday
8,65445348.51795895
2,3, 1, 3, 0, 6,30.00,40.00,Friday
8,65470978.88509696
2,3, 1, 3, 0, 6,40.00,50.00,Friday
8,65654430.620291434
2,3, 1, 3, 0, 6,50.00,60.00,Friday
8,65121153.79865058
2,3, 1, 3, 0, 7, 0.00,10.00,Friday
8,65594599.82784796
2,3, 1, 3, 0, 7,10.00,20.00,Friday
8,66080045.678830534
2,3, 1, 3, 0, 7,20.00,30.00,Friday
8,66698015.972440965
2,3, 1, 3, 0, 7,30.00,40.00,Friday
8,66605375.433912836
2,3, 1, 3, 0, 7,40.00,50.00,Friday
8,66931409.872446395
2,3, 1, 3, 0, 7,50.00,60.00,Friday
8,67391909.17262815
2,3, 1, 3, 0, 8, 0.00,10.00,Friday
8,125683691.79147233
2,3, 1, 3, 0, 8,10.00,20.00,Friday
8,95701826.91641079
2,3, 1, 3, 0, 8,20.00,30.00,Friday
8,97097031.32967103
2,3, 1, 3, 0, 8,30.00,40.00,Friday
8,93771768.7168693
2,3, 1, 3, 0, 8,40.00,50.00,Friday
8,92686587.1483196
2,3, 1, 3, 0, 8,50.00,60.00,Friday
8,91242672.44696255
2,3, 1, 3, 0, 9, 0.00,10.00,Friday
8,122497311.36148527
2,3, 1, 3, 0, 9,10.00,20.00,Friday
8,131756515.16272315
2,3, 1, 3, 0, 9,20.00,30.00,Friday
8,95657908.5694296
2,3, 1, 3, 0, 9,30.00,40.00,Friday
8,108836031.58708389
2,3, 1, 3, 0, 9,40.00,50.00,Friday
8,104636940.03213406
2,3, 1, 3, 0, 9,50.00,60.00,Friday
8,103245950.44600134
2,3, 1, 3, 0,10, 0.00,10.00,Friday
8,190819485.8227834
2,3, 1, 3, 0,10,10.00,20.00,Friday
8,187915383.18808523
2,3, 1, 3, 0,10,20.00,30.00,Friday
8,186294167.46110258
2,3, 1, 3, 0,10,30.00,40.00,Friday
8,185255901.29212332
2,3, 1, 3, 0,10,40.00,50.00,Friday
8,184350510.1047496
2,3, 1, 3, 0,10,50.00,60.00,Friday
8,183554749.11812645
2,3, 1, 3, 0,11, 0.00,10.00,Friday
8,177953114.30519423
2,3, 1, 3, 0,11,10.00,20.00,Friday
8,176733734.55416912
2,3, 1, 3, 0,11,20.00,30.00,Friday
8,175860300.8880507
2,3, 1, 3, 0,11,30.00,40.00,Friday
8,175275484.1133255
2,3, 1, 3, 0,11,40.00,50.00,Friday
8,174760624.88117915
2,3, 1, 3, 0,11,50.00,60.00,Friday
8,174381196.7476313
2,3, 1, 3, 0,12, 0.00,10.00,Friday
8,169914231.33082587
2,3, 1, 3, 0,12,10.00,20.00,Friday
8,168577360.4516689
2,3, 1, 3, 0,12,20.00,30.00,Friday
8,167567288.9095242
2,3, 1, 3, 0,12,30.00,40.00,Friday
8,166698061.53546122
2,3, 1, 3, 0,12,40.00,50.00,Friday
8,165935430.21205336
2,3, 1, 3, 0,12,50.00,60.00,Friday
8,165280256.0908704
2,3, 1, 3, 0,13, 0.00,10.00,Friday
8,162487442.63999274
2,3, 1, 3, 0,13,10.00,20.00,Friday
8,161034556.41518623
2,3, 1, 3, 0,13,20.00,30.00,Friday
8,159780293.08577895
2,3, 1, 3, 0,13,30.00,40.00,Friday
8,158620768.28279728
2,3, 1, 3, 0,13,40.00,50.00,Friday
8,157522164.70165265
2,3, 1, 3, 0,13,50.00,60.00,Friday
8,156464574.3590554
2,3, 1, 3, 0,14, 0.00,10.00,Friday
8,155544154.33052865
2,3, 1, 3, 0,14,10.00,20.00,Friday
8,154558502.10590804
2,3, 1, 3, 0,14,20.00,30.00,Friday
8,153667226.29690707
2,3, 1, 3, 0,14,30.00,40.00,Friday
8,152804693.09340602
2,3, 1, 3, 0,14,40.00,50.00,Friday
8,151964181.03758687
2,3, 1, 3, 0,14,50.00,60.00,Friday
8,151142948.02893227
2,3, 1, 3, 0,15, 0.00,10.00,Friday
8,151189028.06932268
2,3, 1, 3, 0,15,10.00,20.00,Friday
8,150210665.17130044
2,3, 1, 3, 0,15,20.00,30.00,Friday
8,149190572.4491294
2,3, 1, 3, 0,15,30.00,40.00,Friday
8,148227006.59331658
2,3, 1, 3, 0,15,40.00,50.00,Friday
8,147290529.42810673
2,3, 1, 3, 0,15,50.00,60.00,Friday
8,146366613.9539801
2,3, 1, 3, 0,16, 0.00,10.00,Friday
8,148161097.19120783
2,3, 1, 3, 0,16,10.00,20.00,Friday
8,148385229.76135072
2,3, 1, 3, 0,16,20.00,30.00,Friday
8,148459383.84120542
2,3, 1, 3, 0,16,30.00,40.00,Friday
8,148802067.3166626
2,3, 1, 3, 0,16,40.00,50.00,Friday
8,149277040.91854253
2,3, 1, 3, 0,16,50.00,60.00,Friday
8,149860853.7987864
2,3, 1, 3, 0,17, 0.00,10.00,Friday
8,151648802.71243876
2,3, 1, 3, 0,17,10.00,20.00,Friday
8,152083357.39444283
2,3, 1, 3, 0,17,20.00,30.00,Friday
8,152285822.67291838
2,3, 1, 3, 0,17,30.00,40.00,Friday
8,151910122.58293933
2,3, 1, 3, 0,17,40.00,50.00,Friday
8,151318245.01348788
2,3, 1, 3, 0,17,50.00,60.00,Friday
8,150023345.4956801
2,3, 1, 3, 0,18, 0.00,10.00,Friday
8,151251674.60144782
2,3, 1, 3, 0,18,10.00,20.00,Friday
8,151343129.40322414
2,3, 1, 3, 0,18,20.00,30.00,Friday
8,151082563.9357723
2,3, 1, 3, 0,18,30.00,40.00,Friday
8,150757665.59710097
2,3, 1, 3, 0,18,40.00,50.00,Friday
8,150360329.22764418
2,3, 1, 3, 0,18,50.00,60.00,Friday
8,149908352.24799412
2,3, 1, 3, 0,19, 0.00,10.00,Friday
8,149648374.296478
2,3, 1, 3, 0,19,10.00,20.00,Friday
8,148957351.52708036
2,3, 1, 3, 0,19,20.00,30.00,Friday
8,147861367.76731172
2,3, 1, 3, 0,19,30.00,40.00,Friday
8,147391130.34045193
2,3, 1, 3, 0,19,40.00,50.00,Friday
8,146672101.67001984
2,3, 1, 3, 0,19,50.00,60.00,Friday
8,145794208.65196714
2,3, 1, 3, 0,20, 0.00,10.00,Friday
8,124157787.21989408
2,3, 1, 3, 0,20,10.00,20.00,Friday
8,124713829.32792605
2,3, 1, 3, 0,20,20.00,30.00,Friday
8,124737317.79915449
2,3, 1, 3, 0,20,30.00,40.00,Friday
8,125080948.03978261
2,3, 1, 3, 0,20,40.00,50.00,Friday
8,127073959.24527244
2,3, 1, 3, 0,20,50.00,60.00,Friday
8,128083228.63408718
2,3, 1, 3, 0,21, 0.00,10.00,Friday
8,129402018.50390169
2,3, 1, 3, 0,21,10.00,20.00,Friday
8,131974788.70745815
2,3, 1, 3, 0,21,20.00,30.00,Friday
8,133298617.66785204
2,3, 1, 3, 0,21,30.00,40.00,Friday
8,134915987.12977248
2,3, 1, 3, 0,21,40.00,50.00,Friday
8,136640542.47475085
2,3, 1, 3, 0,21,50.00,60.00,Friday
8,137375877.91440684
2,3, 1, 3, 0,22, 0.00,10.00,Friday
8,9250598.996932099
2,3, 1, 3, 0,22,10.00,20.00,Friday
8,10871539.351791708
2,3, 1, 3, 0,22,20.00,30.00,Friday
8,13864980.774083504
2,3, 1, 3, 0,22,30.00,40.00,Friday
8,19701549.939222373
2,3, 1, 3, 0,22,40.00,50.00,Friday
8,38551294.172680356
2,3, 1, 3, 0,22,50.00,60.00,Friday
8,30207734.89360837
2,3, 1, 3, 0,23, 0.00,10.00,Friday
8,35401428.741612814
2,3, 1, 3, 0,23,10.00,20.00,Friday
8,38809206.50397901
2,3, 1, 3, 0,23,20.00,30.00,Friday
8,40712924.218724996
2,3, 1, 3, 0,23,30.00,40.00,Friday
8,41415062.62197047
2,3, 1, 3, 0,23,40.00,50.00,Friday
8,42535579.07079181
2,3, 1, 3, 0,23,50.00,60.00,Friday
8,43552205.51911691
2,3, 1, 3, 0,24, 0.00,10.00,Friday
8,46573667.34418561
2,3, 1, 3, 0,24,10.00,20.00,Friday
8,46516238.767815776
2,3, 1, 3, 0,24,20.00,30.00,Friday
8,46605373.08951613
2,3, 1, 3, 0,24,30.00,40.00,Friday
8,46620329.5781722
2,3, 1, 3, 0,24,40.00,50.00,Friday
8,47110699.10998362
2,3, 1, 3, 0,24,50.00,60.00,Friday
8,46429703.44598056
2,4, 1, 4, 0, 1, 0.00,10.00,Saturday
8,46856487.04764124
2,4, 1, 4, 0, 1,10.00,20.00,Saturday
8,46413169.31088254
2,4, 1, 4, 0, 1,20.00,30.00,Saturday
8,46367440.630497
2,4, 1, 4, 0, 1,30.00,40.00,Saturday
8,45175620.05880351
2,4, 1, 4, 0, 1,40.00,50.00,Saturday
8,44504064.00984975
2,4, 1, 4, 0, 1,50.00,60.00,Saturday
8,43804797.80709679
2,4, 1, 4, 0, 2, 0.00,10.00,Saturday
8,44491646.7162151
2,4, 1, 4, 0, 2,10.00,20.00,Saturday
8,43656363.20096304
2,4, 1, 4, 0, 2,20.00,30.00,Saturday
8,43303167.33154731
2,4, 1, 4, 0, 2,30.00,40.00,Saturday
8,42932929.02129305
2,4, 1, 4, 0, 2,40.00,50.00,Saturday
8,43103621.7424767
2,4, 1, 4, 0, 2,50.00,60.00,Saturday
8,42150787.33857121
2,4, 1, 4, 0, 3, 0.00,10.00,Saturday
8,42380593.770560466
2,4, 1, 4, 0, 3,10.00,20.00,Saturday
8,42416089.59680618
2,4, 1, 4, 0, 3,20.00,30.00,Saturday
8,42971548.05799751
2,4, 1, 4, 0, 3,30.00,40.00,Saturday
8,42405218.44769897
2,4, 1, 4, 0, 3,40.00,50.00,Saturday
8,42386767.2969813
2,4, 1, 4, 0, 3,50.00,60.00,Saturday
8,42363357.34142115
2,4, 1, 4, 0, 4, 0.00,10.00,Saturday
8,43508830.12633339
2,4, 1, 4, 0, 4,10.00,20.00,Saturday
8,43509297.21326599
2,4, 1, 4, 0, 4,20.00,30.00,Saturday
8,44068294.43413407
2,4, 1, 4, 0, 4,30.00,40.00,Saturday
8,44632638.911933824
2,4, 1, 4, 0, 4,40.00,50.00,Saturday
8,45756260.21762637
2,4, 1, 4, 0, 4,50.00,60.00,Saturday
8,45769323.01893663
2,4, 1, 4, 0, 5, 0.00,10.00,Saturday
8,46333737.43824302
2,4, 1, 4, 0, 5,10.00,20.00,Saturday
8,46796715.52813864
2,4, 1, 4, 0, 5,20.00,30.00,Saturday
8,47793805.56541131
2,4, 1, 4, 0, 5,30.00,40.00,Saturday
8,47672024.69720312
2,4, 1, 4, 0, 5,40.00,50.00,Saturday
8,48100477.098167665
2,4, 1, 4, 0, 5,50.00,60.00,Saturday
8,48525994.63614945
2,4, 1, 4, 0, 6, 0.00,10.00,Saturday
8,49120393.35898147
2,4, 1, 4, 0, 6,10.00,20.00,Saturday
8,48566313.05662247
2,4, 1, 4, 0, 6,20.00,30.00,Saturday
8,48565233.492300935
2,4, 1, 4, 0, 6,30.00,40.00,Saturday
8,48565024.919768766
2,4, 1, 4, 0, 6,40.00,50.00,Saturday
8,49120983.65753405
2,4, 1, 4, 0, 6,50.00,60.00,Saturday
8,48562990.99153022
2,4, 1, 4, 0, 7, 0.00,10.00,Saturday
8,49007057.65201693
2,4, 1, 4, 0, 7,10.00,20.00,Saturday
8,49393711.73014955
2,4, 1, 4, 0, 7,20.00,30.00,Saturday
8,50323188.33842846
2,4, 1, 4, 0, 7,30.00,40.00,Saturday
8,50132747.12575369
2,4, 1, 4, 0, 7,40.00,50.00,Saturday
8,50493675.38170669
2,4, 1, 4, 0, 7,50.00,60.00,Saturday
8,50850226.84210522
2,4, 1, 4, 0, 8, 0.00,10.00,Saturday
8,93790062.9343792
2,4, 1, 4, 0, 8,10.00,20.00,Saturday
8,40912772.26779579
2,4, 1, 4, 0, 8,20.00,30.00,Saturday
8,69901923.23850738
2,4, 1, 4, 0, 8,30.00,40.00,Saturday
8,65484752.42926294
2,4, 1, 4, 0, 8,40.00,50.00,Saturday
8,65274586.74150807
2,4, 1, 4, 0, 8,50.00,60.00,Saturday
8,64116499.1544613
2,4, 1, 4, 0, 9, 0.00,10.00,Saturday
8,113586614.43073489
2,4, 1, 4, 0, 9,10.00,20.00,Saturday
8,109796635.79211138
2,4, 1, 4, 0, 9,20.00,30.00,Saturday
8,80072024.88329203
2,4, 1, 4, 0, 9,30.00,40.00,Saturday
8,90575335.18224487
2,4, 1, 4, 0, 9,40.00,50.00,Saturday
8,86900524.22144376
2,4, 1, 4, 0, 9,50.00,60.00,Saturday
8,85455968.99352726
2,4, 1, 4, 0,10, 0.00,10.00,Saturday
8,183704470.4158077
2,4, 1, 4, 0,10,10.00,20.00,Saturday
8,176646817.32395002
2,4, 1, 4, 0,10,20.00,30.00,Saturday
8,174578310.37704095
2,4, 1, 4, 0,10,30.00,40.00,Saturday
8,173767062.491471
2,4, 1, 4, 0,10,40.00,50.00,Saturday
8,171769240.85099962
2,4, 1, 4, 0,10,50.00,60.00,Saturday
8,171703093.01981243
2,4, 1, 4, 0,11, 0.00,10.00,Saturday
8,166560932.4546827
2,4, 1, 4, 0,11,10.00,20.00,Saturday
8,164917929.2991916
2,4, 1, 4, 0,11,20.00,30.00,Saturday
8,163734846.39775082
2,4, 1, 4, 0,11,30.00,40.00,Saturday
8,162472631.66232556
2,4, 1, 4, 0,11,40.00,50.00,Saturday
8,161412656.2385551
2,4, 1, 4, 0,11,50.00,60.00,Saturday
8,160470086.2268917
2,4, 1, 4, 0,12, 0.00,10.00,Saturday
8,156779655.9879904
2,4, 1, 4, 0,12,10.00,20.00,Saturday
8,154942627.55307353
2,4, 1, 4, 0,12,20.00,30.00,Saturday
8,153265723.99421543
2,4, 1, 4, 0,12,30.00,40.00,Saturday
8,151839592.4765858
2,4, 1, 4, 0,12,40.00,50.00,Saturday
8,150546080.34675616
2,4, 1, 4, 0,12,50.00,60.00,Saturday
8,149340342.25163963
2,4, 1, 4, 0,13, 0.00,10.00,Saturday
8,147171797.20626003
2,4, 1, 4, 0,13,10.00,20.00,Saturday
8,146951902.52281207
2,4, 1, 4, 0,13,20.00,30.00,Saturday
8,146546969.66011328
2,4, 1, 4, 0,13,30.00,40.00,Saturday
8,146181195.4847816
2,4, 1, 4, 0,13,40.00,50.00,Saturday
8,145864145.25605348
2,4, 1, 4, 0,13,50.00,60.00,Saturday
8,145581749.5024436
2,4, 1, 4, 0,14, 0.00,10.00,Saturday
8,145019324.85615832