Program Version,EnergyPlus, Version 23.2.0-7636e6b3e9, YMD=2025.01.14 17:01
1,5,Environment Title[],Latitude[deg],Longitude[deg],Time Zone[],Elevation[m]
2,8,Day of Simulation[],Month[],Day of Month[],DST Indicator[1=yes 0=no],Hour[],StartMinute[],EndMinute[],DayType
3,5,Cumulative Day of Simulation[],Month[],Day of Month[],DST Indicator[1=yes 0=no],DayType  ! When Daily Report Variables Requested
4,2,Cumulative Days of Simulation[],Month[]  ! When Monthly Report Variables Requested
5,1,Cumulative Days of Simulation[] ! When Run Period Report Variables Requested
6,1,Calendar Year of Simulation[] ! When Annual Report Variables Requested
8,1,Electricity:Facility [J] !TimeStep
End of Data Dictionary
1,RUN PERIOD 1,  51.53, -71.11,  -5.00, 549.00
2,1, 1, 1, 0, 1, 0.00,10.00,Wednesday
8,62800998.44778213
2,1, 1, 1, 0, 1,10.00,20.00,Wednesday
8,56621213.15961269
2,1, 1, 1, 0, 1,20.00,30.00,Wednesday
8,49479258.15522366
2,1, 1, 1, 0, 1,30.00,40.00,Wednesday
8,42287572.76645032
2,1, 1, 1, 0, 1,40.00,50.00,Wednesday
8,34159327.51771376
2,1, 1, 1, 0, 1,50.00,60.00,Wednesday
8,25545728.624771357
2,1, 1, 1, 0, 2, 0.00,10.00,Wednesday
8,27321794.22294288
2,1, 1, 1, 0, 2,10.00,20.00,Wednesday
8,28009870.70576058
2,1, 1, 1, 0, 2,20.00,30.00,Wednesday
8,28160723.84920871
2,1, 1, 1, 0, 2,30.00,40.00,Wednesday
8,27964963.302508518
2,1, 1, 1, 0, 2,40.00,50.00,Wednesday
8,27992506.14321651
2,1, 1, 1, 0, 2,50.00,60.00,Wednesday
8,28205627.33095732
2,1, 1, 1, 0, 3, 0.00,10.00,Wednesday
8,28770884.29610579
2,1, 1, 1, 0, 3,10.00,20.00,Wednesday
8,28485230.9925031
2,1, 1, 1, 0, 3,20.00,30.00,Wednesday
8,28464499.62887638
2,1, 1, 1, 0, 3,30.00,40.00,Wednesday
8,28613065.083625454
2,1, 1, 1, 0, 3,40.00,50.00,Wednesday
8,28749879.2057064
2,1, 1, 1, 0, 3,50.00,60.00,Wednesday
8,28315670.616501812
2,1, 1, 1, 0, 4, 0.00,10.00,Wednesday
8,29185808.43660542
2,1, 1, 1, 0, 4,10.00,20.00,Wednesday
8,30138863.487664655
2,1, 1, 1, 0, 4,20.00,30.00,Wednesday
8,31161572.62869227
2,1, 1, 1, 0, 4,30.00,40.00,Wednesday
8,31533058.173565254
2,1, 1, 1, 0, 4,40.00,50.00,Wednesday
8,32293299.85967832
2,1, 1, 1, 0, 4,50.00,60.00,Wednesday
8,33211992.317645207
2,1, 1, 1, 0, 5, 0.00,10.00,Wednesday
8,32558178.415842928
2,1, 1, 1, 0, 5,10.00,20.00,Wednesday
8,31298379.06628735
2,1, 1, 1, 0, 5,20.00,30.00,Wednesday
8,30471555.25032646
2,1, 1, 1, 0, 5,30.00,40.00,Wednesday
8,29777178.201362267
2,1, 1, 1, 0, 5,40.00,50.00,Wednesday
8,29274465.856675196
2,1, 1, 1, 0, 5,50.00,60.00,Wednesday
8,28041303.857561342
2,1, 1, 1, 0, 6, 0.00,10.00,Wednesday
8,28082716.17225194
2,1, 1, 1, 0, 6,10.00,20.00,Wednesday
8,28207623.341165036
2,1, 1, 1, 0, 6,20.00,30.00,Wednesday
8,28537357.75669528
2,1, 1, 1, 0, 6,30.00,40.00,Wednesday
8,28093702.057249755
2,1, 1, 1, 0, 6,40.00,50.00,Wednesday
8,28089695.62554998
2,1, 1, 1, 0, 6,50.00,60.00,Wednesday
8,28190403.251944963
2,1, 1, 1, 0, 7, 0.00,10.00,Wednesday
8,30880752.131079923
2,1, 1, 1, 0, 7,10.00,20.00,Wednesday
8,32756809.5615538
2,1, 1, 1, 0, 7,20.00,30.00,Wednesday
8,35098203.3164738
2,1, 1, 1, 0, 7,30.00,40.00,Wednesday
8,37557814.863556094
2,1, 1, 1, 0, 7,40.00,50.00,Wednesday
8,40282746.36672349
2,1, 1, 1, 0, 7,50.00,60.00,Wednesday
8,42217629.7272952
2,1, 1, 1, 0, 8, 0.00,10.00,Wednesday
8,97470257.39666276
2,1, 1, 1, 0, 8,10.00,20.00,Wednesday
8,42941355.93979883
2,1, 1, 1, 0, 8,20.00,30.00,Wednesday
8,71587500.31267159
2,1, 1, 1, 0, 8,30.00,40.00,Wednesday
8,66903053.07921463
2,1, 1, 1, 0, 8,40.00,50.00,Wednesday
8,65266732.26793548
2,1, 1, 1, 0, 8,50.00,60.00,Wednesday
8,64523646.24197335
2,1, 1, 1, 0, 9, 0.00,10.00,Wednesday
8,107827820.61077172
2,1, 1, 1, 0, 9,10.00,20.00,Wednesday
8,89061314.3123805
2,1, 1, 1, 0, 9,20.00,30.00,Wednesday
8,72939947.38311185
2,1, 1, 1, 0, 9,30.00,40.00,Wednesday
8,67819340.29529814
2,1, 1, 1, 0, 9,40.00,50.00,Wednesday
8,64459162.91411584
2,1, 1, 1, 0, 9,50.00,60.00,Wednesday
8,59624070.702744246
2,1, 1, 1, 0,10, 0.00,10.00,Wednesday
8,147718100.81270486
2,1, 1, 1, 0,10,10.00,20.00,Wednesday
8,146067253.1230701
2,1, 1, 1, 0,10,20.00,30.00,Wednesday
8,145591457.86006793
2,1, 1, 1, 0,10,30.00,40.00,Wednesday
8,145356754.8951915
2,1, 1, 1, 0,10,40.00,50.00,Wednesday
8,145521184.17739797
2,1, 1, 1, 0,10,50.00,60.00,Wednesday
8,145958531.07395735
2,1, 1, 1, 0,11, 0.00,10.00,Wednesday
8,146595757.3266517
2,1, 1, 1, 0,11,10.00,20.00,Wednesday
8,150540981.7777196
2,1, 1, 1, 0,11,20.00,30.00,Wednesday
8,154826568.24296305
2,1, 1, 1, 0,11,30.00,40.00,Wednesday
8,159016107.20748308
2,1, 1, 1, 0,11,40.00,50.00,Wednesday
8,163244243.4207078
2,1, 1, 1, 0,11,50.00,60.00,Wednesday
8,167446282.31216803
2,1, 1, 1, 0,12, 0.00,10.00,Wednesday
8,164346855.3978597
2,1, 1, 1, 0,12,10.00,20.00,Wednesday
8,163021554.53688926
2,1, 1, 1, 0,12,20.00,30.00,Wednesday
8,161837927.41299194
2,1, 1, 1, 0,12,30.00,40.00,Wednesday
8,160983079.2537642
2,1, 1, 1, 0,12,40.00,50.00,Wednesday
8,160297337.63923547
2,1, 1, 1, 0,12,50.00,60.00,Wednesday
8,159705271.5539427
2,1, 1, 1, 0,13, 0.00,10.00,Wednesday
8,157679167.03428826
2,1, 1, 1, 0,13,10.00,20.00,Wednesday
8,156687922.9150155
2,1, 1, 1, 0,13,20.00,30.00,Wednesday
8,156009650.97466993
2,1, 1, 1, 0,13,30.00,40.00,Wednesday
8,155502522.15556362
2,1, 1, 1, 0,13,40.00,50.00,Wednesday
8,155108183.87011826
2,1, 1, 1, 0,13,50.00,60.00,Wednesday
8,154793607.50174174
2,1, 1, 1, 0,14, 0.00,10.00,Wednesday
8,158086485.18641376
2,1, 1, 1, 0,14,10.00,20.00,Wednesday
8,161359612.2481656
2,1, 1, 1, 0,14,20.00,30.00,Wednesday
8,164748522.2335327
2,1, 1, 1, 0,14,30.00,40.00,Wednesday
8,168142975.62858987
2,1, 1, 1, 0,14,40.00,50.00,Wednesday
8,171554671.39280573
2,1, 1, 1, 0,14,50.00,60.00,Wednesday
8,174982606.87173197
2,1, 1, 1, 0,15, 0.00,10.00,Wednesday
8,173399883.29286066
2,1, 1, 1, 0,15,10.00,20.00,Wednesday
8,170980328.34585246
2,1, 1, 1, 0,15,20.00,30.00,Wednesday
8,168465970.0184725
2,1, 1, 1, 0,15,30.00,40.00,Wednesday
8,166125338.7632673
2,1, 1, 1, 0,15,40.00,50.00,Wednesday
8,163839187.1656987
2,1, 1, 1, 0,15,50.00,60.00,Wednesday
8,161600895.53231627
2,1, 1, 1, 0,16, 0.00,10.00,Wednesday
8,164808466.95893213
2,1, 1, 1, 0,16,10.00,20.00,Wednesday
8,167402734.88297552
2,1, 1, 1, 0,16,20.00,30.00,Wednesday
8,169745825.68147522
2,1, 1, 1, 0,16,30.00,40.00,Wednesday
8,172303101.70590156
2,1, 1, 1, 0,16,40.00,50.00,Wednesday
8,174298538.7247379
2,1, 1, 1, 0,16,50.00,60.00,Wednesday
8,176067568.85580087
2,1, 1, 1, 0,17, 0.00,10.00,Wednesday
8,176305539.4391941
2,1, 1, 1, 0,17,10.00,20.00,Wednesday
8,175492519.53639203
2,1, 1, 1, 0,17,20.00,30.00,Wednesday
8,174361476.76611823
2,1, 1, 1, 0,17,30.00,40.00,Wednesday
8,173141908.7321691
2,1, 1, 1, 0,17,40.00,50.00,Wednesday
8,171835565.60870713
2,1, 1, 1, 0,17,50.00,60.00,Wednesday
8,169887534.5821057
2,1, 1, 1, 0,18, 0.00,10.00,Wednesday
8,169284703.26326174
2,1, 1, 1, 0,18,10.00,20.00,Wednesday
8,168144474.9397988
2,1, 1, 1, 0,18,20.00,30.00,Wednesday
8,166852019.9760278
2,1, 1, 1, 0,18,30.00,40.00,Wednesday
8,165418978.8339188
2,1, 1, 1, 0,18,40.00,50.00,Wednesday
8,163923123.60070685
2,1, 1, 1, 0,18,50.00,60.00,Wednesday
8,162372058.11399022
2,1, 1, 1, 0,19, 0.00,10.00,Wednesday
8,166316787.7721838
2,1, 1, 1, 0,19,10.00,20.00,Wednesday
8,170348869.8688936
2,1, 1, 1, 0,19,20.00,30.00,Wednesday
8,173799581.88719937
2,1, 1, 1, 0,19,30.00,40.00,Wednesday
8,177857715.90188453
2,1, 1, 1, 0,19,40.00,50.00,Wednesday
8,182044919.6701123
2,1, 1, 1, 0,19,50.00,60.00,Wednesday
8,185947591.92810574
2,1, 1, 1, 0,20, 0.00,10.00,Wednesday
8,159177118.87102246
2,1, 1, 1, 0,20,10.00,20.00,Wednesday
8,164201552.71488848
2,1, 1, 1, 0,20,20.00,30.00,Wednesday
8,168823311.49280918
2,1, 1, 1, 0,20,30.00,40.00,Wednesday
8,170690611.20565253
2,1, 1, 1, 0,20,40.00,50.00,Wednesday
8,172012266.6053719
2,1, 1, 1, 0,20,50.00,60.00,Wednesday
8,173204440.73457018
2,1, 1, 1, 0,21, 0.00,10.00,Wednesday
8,173058979.37865046
2,1, 1, 1, 0,21,10.00,20.00,Wednesday
8,174258319.28481394
2,1, 1, 1, 0,21,20.00,30.00,Wednesday
8,174327338.55726168
2,1, 1, 1, 0,21,30.00,40.00,Wednesday
8,174044463.89946035
2,1, 1, 1, 0,21,40.00,50.00,Wednesday
8,174607913.40570706
2,1, 1, 1, 0,21,50.00,60.00,Wednesday
8,174141847.58182627
2,1, 1, 1, 0,22, 0.00,10.00,Wednesday
8,19851080.936225478
2,1, 1, 1, 0,22,10.00,20.00,Wednesday
8,25932577.0021033
2,1, 1, 1, 0,22,20.00,30.00,Wednesday
8,41299825.4655953
2,1, 1, 1, 0,22,30.00,40.00,Wednesday
8,52538065.33354546
2,1, 1, 1, 0,22,40.00,50.00,Wednesday
8,54612869.010580845
2,1, 1, 1, 0,22,50.00,60.00,Wednesday
8,52486938.86033036
2,1, 1, 1, 0,23, 0.00,10.00,Wednesday
8,59188581.40385213
2,1, 1, 1, 0,23,10.00,20.00,Wednesday
8,61155926.83249461
2,1, 1, 1, 0,23,20.00,30.00,Wednesday
8,62507125.832592845
2,1, 1, 1, 0,23,30.00,40.00,Wednesday
8,62798794.28786959
2,1, 1, 1, 0,23,40.00,50.00,Wednesday
8,63431557.220375426
2,1, 1, 1, 0,23,50.00,60.00,Wednesday
8,64013848.1990233
2,1, 1, 1, 0,24, 0.00,10.00,Wednesday
8,67866096.17812774
2,1, 1, 1, 0,24,10.00,20.00,Wednesday
8,68903957.36832364
2,1, 1, 1, 0,24,20.00,30.00,Wednesday
8,70068541.59825927
2,1, 1, 1, 0,24,30.00,40.00,Wednesday
8,71234435.8823912
2,1, 1, 1, 0,24,40.00,50.00,Wednesday
8,72669652.24747403
2,1, 1, 1, 0,24,50.00,60.00,Wednesday
8,73157364.28934018
2,2, 1, 2, 0, 1, 0.00,10.00,Thursday
8,75323707.9268247
2,2, 1, 2, 0, 1,10.00,20.00,Thursday
8,76918436.79319084
2,2, 1, 2, 0, 1,20.00,30.00,Thursday
8,78725520.22584318
2,2, 1, 2, 0, 1,30.00,40.00,Thursday
8,79647822.4848793
2,2, 1, 2, 0, 1,40.00,50.00,Thursday
8,81026298.49356169
2,2, 1, 2, 0, 1,50.00,60.00,Thursday
8,82480977.59588124
2,2, 1, 2, 0, 2, 0.00,10.00,Thursday
8,82707036.19739008
2,2, 1, 2, 0, 2,10.00,20.00,Thursday
8,81715869.75953205
2,2, 1, 2, 0, 2,20.00,30.00,Thursday
8,81117687.96867676
2,2, 1, 2, 0, 2,30.00,40.00,Thursday
8,80598605.99029969
2,2, 1, 2, 0, 2,40.00,50.00,Thursday
8,80325882.81074071
2,2, 1, 2, 0, 2,50.00,60.00,Thursday
8,79222832.75783293
2,2, 1, 2, 0, 3, 0.00,10.00,Thursday
8,79167614.92226703
2,2, 1, 2, 0, 3,10.00,20.00,Thursday
8,79090426.31660278
2,2, 1, 2, 0, 3,20.00,30.00,Thursday
8,79242195.15322009
2,2, 1, 2, 0, 3,30.00,40.00,Thursday
8,78588211.2072927
2,2, 1, 2, 0, 3,40.00,50.00,Thursday
8,78381686.49926929
2,2, 1, 2, 0, 3,50.00,60.00,Thursday
8,78276712.18365967
2,2, 1, 2, 0, 4, 0.00,10.00,Thursday
8,79245118.80989225
2,2, 1, 2, 0, 4,10.00,20.00,Thursday
8,79276646.60253493
2,2, 1, 2, 0, 4,20.00,30.00,Thursday
8,79728882.99043001
2,2, 1, 2, 0, 4,30.00,40.00,Thursday
8,80281756.18082641
2,2, 1, 2, 0, 4,40.00,50.00,Thursday
8,81057514.64205495
2,2, 1, 2, 0, 4,50.00,60.00,Thursday
8,81044825.92463747
2,2, 1, 2, 0, 5, 0.00,10.00,Thursday
8,81967879.69595812
2,2, 1, 2, 0, 5,10.00,20.00,Thursday
8,82978036.72652858
2,2, 1, 2, 0, 5,20.00,30.00,Thursday
8,84213240.48629056
2,2, 1, 2, 0, 5,30.00,40.00,Thursday
8,84675512.49907605
2,2, 1, 2, 0, 5,40.00,50.00,Thursday
8,85585254.802747
2,2, 1, 2, 0, 5,50.00,60.00,Thursday
8,86609751.50440393
2,2, 1, 2, 0, 6, 0.00,10.00,Thursday
8,86014197.2701144
2,2, 1, 2, 0, 6,10.00,20.00,Thursday
8,84550495.62491831
2,2, 1, 2, 0, 6,20.00,30.00,Thursday
8,83507801.85644263
2,2, 1, 2, 0, 6,30.00,40.00,Thursday
8,82567763.42495686
2,2, 1, 2, 0, 6,40.00,50.00,Thursday
8,81832846.93836299
2,2, 1, 2, 0, 6,50.00,60.00,Thursday
8,80317683.59536575
2,2, 1, 2, 0, 7, 0.00,10.00,Thursday
8,77031912.94500332
2,2, 1, 2, 0, 7,10.00,20.00,Thursday
8,73758664.89001773
2,2, 1, 2, 0, 7,20.00,30.00,Thursday
8,70667561.51051055
2,2, 1, 2, 0, 7,30.00,40.00,Thursday
8,66787119.144196585
2,2, 1, 2, 0, 7,40.00,50.00,Thursday
8,63328157.477436066
2,2, 1, 2, 0, 7,50.00,60.00,Thursday
8,59964490.30081376
2,2, 1, 2, 0, 8, 0.00,10.00,Thursday
8,117804688.10990888
2,2, 1, 2, 0, 8,10.00,20.00,Thursday
8,89555072.3289974
2,2, 1, 2, 0, 8,20.00,30.00,Thursday
8,91225053.61442608
2,2, 1, 2, 0, 8,30.00,40.00,Thursday
8,88016127.89601944
2,2, 1, 2, 0, 8,40.00,50.00,Thursday
8,87285341.30843449
2,2, 1, 2, 0, 8,50.00,60.00,Thursday
8,85744114.94570184
2,2, 1, 2, 0, 9, 0.00,10.00,Thursday
8,121693808.55870824
2,2, 1, 2, 0, 9,10.00,20.00,Thursday
8,127110512.66638127
2,2, 1, 2, 0, 9,20.00,30.00,Thursday
8,98001552.25849088
2,2, 1, 2, 0, 9,30.00,40.00,Thursday
8,109642841.98914634
2,2, 1, 2, 0, 9,40.00,50.00,Thursday
8,107921586.54942127
2,2, 1, 2, 0, 9,50.00,60.00,Thursday
8,108880530.65643592
2,2, 1, 2, 0,10, 0.00,10.00,Thursday
8,202888632.0419349
2,2, 1, 2, 0,10,10.00,20.00,Thursday
8,199224231.17235848
2,2, 1, 2, 0,10,20.00,30.00,Thursday
8,196922826.803156
2,2, 1, 2, 0,10,30.00,40.00,Thursday
8,195163727.45515653
2,2, 1, 2, 0,10,40.00,50.00,Thursday
8,193479408.96584195
2,2, 1, 2, 0,10,50.00,60.00,Thursday
8,191946747.02772692
2,2, 1, 2, 0,11, 0.00,10.00,Thursday
8,186244088.76391023
2,2, 1, 2, 0,11,10.00,20.00,Thursday
8,184009929.41079682
2,2, 1, 2, 0,11,20.00,30.00,Thursday
8,182297525.11992308
2,2, 1, 2, 0,11,30.00,40.00,Thursday
8,180537237.91642636
2,2, 1, 2, 0,11,40.00,50.00,Thursday
8,178759910.19592452
2,2, 1, 2, 0,11,50.00,60.00,Thursday
8,177122307.77776194
2,2, 1, 2, 0,12, 0.00,10.00,Thursday
8,173829994.09544936
2,2, 1, 2, 0,12,10.00,20.00,Thursday
8,172494537.9727081
2,2, 1, 2, 0,12,20.00,30.00,Thursday
8,171520587.80181903
2,2, 1, 2, 0,12,30.00,40.00,Thursday
8,170761290.4772235
2,2, 1, 2, 0,12,40.00,50.00,Thursday
8,170101241.71990854
2,2, 1, 2, 0,12,50.00,60.00,Thursday
8,169566645.6485679
2,2, 1, 2, 0,13, 0.00,10.00,Thursday
8,165816804.48760042
2,2, 1, 2, 0,13,10.00,20.00,Thursday
8,163193544.3710038
2,2, 1, 2, 0,13,20.00,30.00,Thursday
8,160876446.40157354
2,2, 1, 2, 0,13,30.00,40.00,Thursday
8,158670262.48263064
2,2, 1, 2, 0,13,40.00,50.00,Thursday
8,156550036.43738
2,2, 1, 2, 0,13,50.00,60.00,Thursday
8,154495483.30798173
2,2, 1, 2, 0,14, 0.00,10.00,Thursday
8,157696507.72813508
2,2, 1, 2, 0,14,10.00,20.00,Thursday
8,161015863.99369338
2,2, 1, 2, 0,14,20.00,30.00,Thursday
8,164457226.02019095
2,2, 1, 2, 0,14,30.00,40.00,Thursday
8,168092561.29062858
2,2, 1, 2, 0,14,40.00,50.00,Thursday
8,171832902.1254969
2,2, 1, 2, 0,14,50.00,60.00,Thursday
8,175639021.03895503
2,2, 1, 2, 0,15, 0.00,10.00,Thursday
8,176467980.54215866
2,2, 1, 2, 0,15,10.00,20.00,Thursday
8,176261763.6460043
2,2, 1, 2, 0,15,20.00,30.00,Thursday
8,175971951.45657688
2,2, 1, 2, 0,15,30.00,40.00,Thursday
8,175715572.91252968
2,2, 1, 2, 0,15,40.00,50.00,Thursday
8,175454654.29178184
2,2, 1, 2, 0,15,50.00,60.00,Thursday
8,175201498.96114844
2,2, 1, 2, 0,16, 0.00,10.00,Thursday
8,177949737.00096253
2,2, 1, 2, 0,16,10.00,20.00,Thursday
8,179913519.1679151
2,2, 1, 2, 0,16,20.00,30.00,Thursday
8,181605592.9621892
2,2, 1, 2, 0,16,30.00,40.00,Thursday
8,183509964.42944157
2,2, 1, 2, 0,16,40.00,50.00,Thursday
8,184869830.69077694
2,2, 1, 2, 0,16,50.00,60.00,Thursday
8,186013849.06921867
2,2, 1, 2, 0,17, 0.00,10.00,Thursday
8,186347612.6987646
2,2, 1, 2, 0,17,10.00,20.00,Thursday
8,185541150.4271217
2,2, 1, 2, 0,17,20.00,30.00,Thursday
8,184405844.37382895
2,2, 1, 2, 0,17,30.00,40.00,Thursday
8,183183837.53847143
2,2, 1, 2, 0,17,40.00,50.00,Thursday
8,181883484.83537692
2,2, 1, 2, 0,17,50.00,60.00,Thursday
8,179947940.17793563
2,2, 1, 2, 0,18, 0.00,10.00,Thursday
8,181539974.11816108
2,2, 1, 2, 0,18,10.00,20.00,Thursday
8,182750229.43390286
2,2, 1, 2, 0,18,20.00,30.00,Thursday
8,183750503.133021
2,2, 1, 2, 0,18,30.00,40.00,Thursday
8,184700895.78008077
2,2, 1, 2, 0,18,40.00,50.00,Thursday
8,185624434.01126242
2,2, 1, 2, 0,18,50.00,60.00,Thursday
8,186527295.4750413
2,2, 1, 2, 0,19, 0.00,10.00,Thursday
8,183845703.22675115
2,2, 1, 2, 0,19,10.00,20.00,Thursday
8,181140763.82849878
2,2, 1, 2, 0,19,20.00,30.00,Thursday
8,177945473.47839627
2,2, 1, 2, 0,19,30.00,40.00,Thursday
8,175382405.3494149
2,2, 1, 2, 0,19,40.00,50.00,Thursday
8,172739579.56888562
2,2, 1, 2, 0,19,50.00,60.00,Thursday
8,169874308.83614695
2,2, 1, 2, 0,20, 0.00,10.00,Thursday
8,144649987.48470664
2,2, 1, 2, 0,20,10.00,20.00,Thursday
8,151211405.79199693
2,2, 1, 2, 0,20,20.00,30.00,Thursday
8,157491894.52304354
2,2, 1, 2, 0,20,30.00,40.00,Thursday
8,161364573.75473404
2,2, 1, 2, 0,20,40.00,50.00,Thursday
8,163774860.23542482
2,2, 1, 2, 0,20,50.00,60.00,Thursday
8,166624932.28259426
2,2, 1, 2, 0,21, 0.00,10.00,Thursday
8,166751033.2091268
2,2, 1, 2, 0,21,10.00,20.00,Thursday
8,168180657.79719645
2,2, 1, 2, 0,21,20.00,30.00,Thursday
8,168359200.37158158
2,2, 1, 2, 0,21,30.00,40.00,Thursday
8,168491033.44882175
2,2, 1, 2, 0,21,40.00,50.00,Thursday
8,169155243.45022172
2,2, 1, 2, 0,21,50.00,60.00,Thursday
8,168786951.29276136
2,2, 1, 2, 0,22, 0.00,10.00,Thursday
8,19352916.798565865
2,2, 1, 2, 0,22,10.00,20.00,Thursday
8,22896178.99795049
2,2, 1, 2, 0,22,20.00,30.00,Thursday
8,37199520.25065857
2,2, 1, 2, 0,22,30.00,40.00,Thursday
8,43706536.61670082
2,2, 1, 2, 0,22,40.00,50.00,Thursday
8,48817527.898704164
2,2, 1, 2, 0,22,50.00,60.00,Thursday
8,45033423.44591618
2,2, 1, 2, 0,23, 0.00,10.00,Thursday
8,50266236.8302061
2,2, 1, 2, 0,23,10.00,20.00,Thursday
8,50885540.97291843
2,2, 1, 2, 0,23,20.00,30.00,Thursday
8,50989393.51565466
2,2, 1, 2, 0,23,30.00,40.00,Thursday
8,49847360.2197547
2,2, 1, 2, 0,23,40.00,50.00,Thursday
8,49075786.88048206
2,2, 1, 2, 0,23,50.00,60.00,Thursday
8,48162954.80654803
2,2, 1, 2, 0,24, 0.00,10.00,Thursday
8,52941016.9491624
2,2, 1, 2, 0,24,10.00,20.00,Thursday
8,54758645.878020234
2,2, 1, 2, 0,24,20.00,30.00,Thursday
8,56777580.47512698
2,2, 1, 2, 0,24,30.00,40.00,Thursday
8,58735101.81878294
2,2, 1, 2, 0,24,40.00,50.00,Thursday
8,61177857.10177802
2,2, 1, 2, 0,24,50.00,60.00,Thursday
8,62465657.48057606
2,3, 1, 3, 0, 1, 0.00,10.00,Friday
8,60857103.55617245
2,3, 1, 3, 0, 1,10.00,20.00,Friday
8,58458175.92153289
2,3, 1, 3, 0, 1,20.00,30.00,Friday
8,56379418.22999066
2,3, 1, 3, 0, 1,30.00,40.00,Friday
8,53291023.07054101
2,3, 1, 3, 0, 1,40.00,50.00,Friday
8,50715752.77783906
2,3, 1, 3, 0, 1,50.00,60.00,Friday
8,48211206.61358857
2,3, 1, 3, 0, 2, 0.00,10.00,Friday
8,52826871.02115625
2,3, 1, 3, 0, 2,10.00,20.00,Friday
8,56264636.71921652
2,3, 1, 3, 0, 2,20.00,30.00,Friday
8,60124183.33422352
2,3, 1, 3, 0, 2,30.00,40.00,Friday
8,64037194.57590221
2,3, 1, 3, 0, 2,40.00,50.00,Friday
8,68208751.66129507
2,3, 1, 3, 0, 2,50.00,60.00,Friday
8,71500456.54972824
2,3, 1, 3, 0, 3, 0.00,10.00,Friday
8,67620174.38942581
2,3, 1, 3, 0, 3,10.00,20.00,Friday
8,63802200.50994966
2,3, 1, 3, 0, 3,20.00,30.00,Friday
8,60233348.89823823
2,3, 1, 3, 0, 3,30.00,40.00,Friday
8,55871387.34632833
2,3, 1, 3, 0, 3,40.00,50.00,Friday
8,51969231.89054995
2,3, 1, 3, 0, 3,50.00,60.00,Friday
8,48188745.88858005
2,3, 1, 3, 0, 4, 0.00,10.00,Friday
8,51529462.353207074
2,3, 1, 3, 0, 4,10.00,20.00,Friday
8,54020827.59641256
2,3, 1, 3, 0, 4,20.00,30.00,Friday
8,56916257.73109507
2,3, 1, 3, 0, 4,30.00,40.00,Friday
8,59903665.68910805
2,3, 1, 3, 0, 4,40.00,50.00,Friday
8,63051932.970826104
2,3, 1, 3, 0, 4,50.00,60.00,Friday
8,65426730.436498664
2,3, 1, 3, 0, 5, 0.00,10.00,Friday
8,65463330.88069506
2,3, 1, 3, 0, 5,10.00,20.00,Friday
8,65613168.031129204
2,3, 1, 3, 0, 5,20.00,30.00,Friday
8,65936369.864164285
2,3, 1, 3, 0, 5,30.00,40.00,Friday
8,65531861.624240406
2,3, 1, 3, 0, 5,40.00,50.00,Friday
8,65556284.38209986
2,3, 1, 3, 0, 5,50.00,60.00,Friday
8,65712149.53716067
2,3, 1, 3, 0, 6, 0.00,10.00,Friday
8,66033182.81715831
2,3, 1, 3, 0, 6,10.00,20.00,Friday
8,65577343.42556699
2,3, 1, 3, 0, 6,20.00,30.00,Friday
8,65532805.310728304
2,3, 1, 3, 0, 6,30.00,40.00,Friday
8,65617582.37699911
2,3, 1, 3, 0, 6,40.00,50.00,Friday
8,65852860.425391875
2,3, 1, 3, 0, 6,50.00,60.00,Friday
8,65376331.18513995
2,3, 1, 3, 0, 7, 0.00,10.00,Friday
8,64718073.76784208
2,3, 1, 3, 0, 7,10.00,20.00,Friday
8,64202165.01158491
2,3, 1, 3, 0, 7,20.00,30.00,Friday
8,63833303.54192024
2,3, 1, 3, 0, 7,30.00,40.00,Friday
8,62758083.48841528
2,3, 1, 3, 0, 7,40.00,50.00,Friday
8,62100618.13353435
2,3, 1, 3, 0, 7,50.00,60.00,Friday
8,61577901.303469196
2,3, 1, 3, 0, 8, 0.00,10.00,Friday
8,116797921.7713615
2,3, 1, 3, 0, 8,10.00,20.00,Friday
8,86982991.820124
2,3, 1, 3, 0, 8,20.00,30.00,Friday
8,87078786.96346624
2,3, 1, 3, 0, 8,30.00,40.00,Friday
8,82516069.40871197
2,3, 1, 3, 0, 8,40.00,50.00,Friday
8,80249383.37006697
2,3, 1, 3, 0, 8,50.00,60.00,Friday
8,77490433.2551866
2,3, 1, 3, 0, 9, 0.00,10.00,Friday
8,116915700.9390827
2,3, 1, 3, 0, 9,10.00,20.00,Friday
8,111096547.11220565
2,3, 1, 3, 0, 9,20.00,30.00,Friday
8,87679552.4384418
2,3, 1, 3, 0, 9,30.00,40.00,Friday
8,89273520.31929314
2,3, 1, 3, 0, 9,40.00,50.00,Friday
8,86825270.40619168
2,3, 1, 3, 0, 9,50.00,60.00,Friday
8,84834122.4008294
2,3, 1, 3, 0,10, 0.00,10.00,Friday
8,168080100.865639
2,3, 1, 3, 0,10,10.00,20.00,Friday
8,164411020.550775
2,3, 1, 3, 0,10,20.00,30.00,Friday
8,162067200.14701894
2,3, 1, 3, 0,10,30.00,40.00,Friday
8,160284474.79451215
2,3, 1, 3, 0,10,40.00,50.00,Friday
8,158611860.91592917
2,3, 1, 3, 0,10,50.00,60.00,Friday
8,157071348.48929867
2,3, 1, 3, 0,11, 0.00,10.00,Friday
8,151828534.601411
2,3, 1, 3, 0,11,10.00,20.00,Friday
8,149964746.06723022
2,3, 1, 3, 0,11,20.00,30.00,Friday
8,148608304.12702397
2,3, 1, 3, 0,11,30.00,40.00,Friday
8,147380977.76760387
2,3, 1, 3, 0,11,40.00,50.00,Friday
8,146184000.00234732
2,3, 1, 3, 0,11,50.00,60.00,Friday
8,145120707.27081925
2,3, 1, 3, 0,12, 0.00,10.00,Friday
8,142794370.82679635
2,3, 1, 3, 0,12,10.00,20.00,Friday
8,141977755.34314767
2,3, 1, 3, 0,12,20.00,30.00,Friday
8,141413347.24989104
2,3, 1, 3, 0,12,30.00,40.00,Friday
8,140986722.37039828
2,3, 1, 3, 0,12,40.00,50.00,Friday
8,140652920.93807244
2,3, 1, 3, 0,12,50.00,60.00,Friday
8,140410048.90043548
2,3, 1, 3, 0,13, 0.00,10.00,Friday
8,139734895.48065257
2,3, 1, 3, 0,13,10.00,20.00,Friday
8,139238977.2784663
2,3, 1, 3, 0,13,20.00,30.00,Friday
8,138957029.67419773
2,3, 1, 3, 0,13,30.00,40.00,Friday
8,138561679.37152845
2,3, 1, 3, 0,13,40.00,50.00,Friday
8,138137665.6766129
2,3, 1, 3, 0,13,50.00,60.00,Friday
8,137702661.24180165
2,3, 1, 3, 0,14, 0.00,10.00,Friday
8,137895933.39281893
2,3, 1, 3, 0,14,10.00,20.00,Friday
8,138440265.04225856
2,3, 1, 3, 0,14,20.00,30.00,Friday
8,139062803.83816496
2,3, 1, 3, 0,14,30.00,40.00,Friday
8,139830446.2924684
2,3, 1, 3, 0,14,40.00,50.00,Friday
8,140674706.43528065
2,3, 1, 3, 0,14,50.00,60.00,Friday
8,141572198.81550106
2,3, 1, 3, 0,15, 0.00,10.00,Friday
8,141228823.78151298
2,3, 1, 3, 0,15,10.00,20.00,Friday
8,140746620.07639185
2,3, 1, 3, 0,15,20.00,30.00,Friday
8,140226514.46850103
2,3, 1, 3, 0,15,30.00,40.00,Friday
8,139950288.49191818
2,3, 1, 3, 0,15,40.00,50.00,Friday
8,139779386.3381586
2,3, 1, 3, 0,15,50.00,60.00,Friday
8,139682765.41628966
2,3, 1, 3, 0,16, 0.00,10.00,Friday
8,139381162.37177065
2,3, 1, 3, 0,16,10.00,20.00,Friday
8,138511339.42264006
2,3, 1, 3, 0,16,20.00,30.00,Friday
8,137419319.12038064
2,3, 1, 3, 0,16,30.00,40.00,Friday
8,136079087.79381397
2,3, 1, 3, 0,16,40.00,50.00,Friday
8,134927027.2610743
2,3, 1, 3, 0,16,50.00,60.00,Friday
8,133227957.51232722
2,3, 1, 3, 0,17, 0.00,10.00,Friday
8,135319005.60011667
2,3, 1, 3, 0,17,10.00,20.00,Friday
8,136353340.85283837
2,3, 1, 3, 0,17,20.00,30.00,Friday
8,137053898.7341766
2,3, 1, 3, 0,17,30.00,40.00,Friday
8,137654884.31521857
2,3, 1, 3, 0,17,40.00,50.00,Friday
8,138158859.5643223
2,3, 1, 3, 0,17,50.00,60.00,Friday
8,138007564.33315718
2,3, 1, 3, 0,18, 0.00,10.00,Friday
8,139314265.41933405
2,3, 1, 3, 0,18,10.00,20.00,Friday
8,139976093.41328388
2,3, 1, 3, 0,18,20.00,30.00,Friday
8,140343789.42782176
2,3, 1, 3, 0,18,30.00,40.00,Friday
8,140668477.61555946
2,3, 1, 3, 0,18,40.00,50.00,Friday
8,140953391.8837187
2,3, 1, 3, 0,18,50.00,60.00,Friday
8,141209034.89503503
2,3, 1, 3, 0,19, 0.00,10.00,Friday
8,141278992.3625895
2,3, 1, 3, 0,19,10.00,20.00,Friday
8,141177713.29141638
2,3, 1, 3, 0,19,20.00,30.00,Friday
8,140719060.98615965
2,3, 1, 3, 0,19,30.00,40.00,Friday
8,140895996.4090372
2,3, 1, 3, 0,19,40.00,50.00,Friday
8,140835784.24238288
2,3, 1, 3, 0,19,50.00,60.00,Friday
8,140624996.2336831
2,3, 1, 3, 0,20, 0.00,10.00,Friday
8,123622559.89162712
2,3, 1, 3, 0,20,10.00,20.00,Friday
8,126603428.79257916
2,3, 1, 3, 0,20,20.00,30.00,Friday
8,129110972.97526227
2,3, 1, 3, 0,20,30.00,40.00,Friday
8,132010566.4577994
2,3, 1, 3, 0,20,40.00,50.00,Friday
8,139131655.37654915
2,3, 1, 3, 0,20,50.00,60.00,Friday
8,139635073.1610113
2,3, 1, 3, 0,21, 0.00,10.00,Friday
8,139692115.418334
2,3, 1, 3, 0,21,10.00,20.00,Friday
8,140887746.22060984
2,3, 1, 3, 0,21,20.00,30.00,Friday
8,140558606.32743463
2,3, 1, 3, 0,21,30.00,40.00,Friday
8,140540540.48363808
2,3, 1, 3, 0,21,40.00,50.00,Friday
8,140675179.09346446
2,3, 1, 3, 0,21,50.00,60.00,Friday
8,139781253.98697925
2,3, 1, 3, 0,22, 0.00,10.00,Friday
8,7384054.265832552
2,3, 1, 3, 0,22,10.00,20.00,Friday
8,8577232.123908408
2,3, 1, 3, 0,22,20.00,30.00,Friday
8,11755758.470243638
2,3, 1, 3, 0,22,30.00,40.00,Friday
8,14490463.485367155
2,3, 1, 3, 0,22,40.00,50.00,Friday
8,20489393.05176154
2,3, 1, 3, 0,22,50.00,60.00,Friday
8,36909391.33692057
2,3, 1, 3, 0,23, 0.00,10.00,Friday
8,33363045.60615035
2,3, 1, 3, 0,23,10.00,20.00,Friday
8,34762813.76784297
2,3, 1, 3, 0,23,20.00,30.00,Friday
8,36112978.994775504
2,3, 1, 3, 0,23,30.00,40.00,Friday
8,35398180.78700935
2,3, 1, 3, 0,23,40.00,50.00,Friday
8,35051525.972111575
2,3, 1, 3, 0,23,50.00,60.00,Friday
8,34564883.04781284
2,3, 1, 3, 0,24, 0.00,10.00,Friday
8,40419911.19523461
2,3, 1, 3, 0,24,10.00,20.00,Friday
8,43118165.26485289
2,3, 1, 3, 0,24,20.00,30.00,Friday
8,45997974.19407313
2,3, 1, 3, 0,24,30.00,40.00,Friday
8,48819577.04108798
2,3, 1, 3, 0,24,40.00,50.00,Friday
8,52135533.21031213
2,3, 1, 3, 0,24,50.00,60.00,Friday
8,54295687.84531258
2,4, 1, 4, 0, 1, 0.00,10.00,Saturday
8,56026087.28589781
2,4, 1, 4, 0, 1,10.00,20.00,Saturday
8,56844229.751261525
2,4, 1, 4, 0, 1,20.00,30.00,Saturday
8,58030952.2348899
2,4, 1, 4, 0, 1,30.00,40.00,Saturday
8,58037028.69180725
2,4, 1, 4, 0, 1,40.00,50.00,Saturday
8,58539642.169727996
2,4, 1, 4, 0, 1,50.00,60.00,Saturday
8,58992421.07009454
2,4, 1, 4, 0, 2, 0.00,10.00,Saturday
8,61174956.497237116
2,4, 1, 4, 0, 2,10.00,20.00,Saturday
8,62050870.43332089
2,4, 1, 4, 0, 2,20.00,30.00,Saturday
8,63428150.16077541
2,4, 1, 4, 0, 2,30.00,40.00,Saturday
8,64769627.51922179
2,4, 1, 4, 0, 2,40.00,50.00,Saturday
8,66631761.917574316
2,4, 1, 4, 0, 2,50.00,60.00,Saturday
8,67342666.34691481
2,4, 1, 4, 0, 3, 0.00,10.00,Saturday
8,66963871.36985158
2,4, 1, 4, 0, 3,10.00,20.00,Saturday
8,66589185.31651548
2,4, 1, 4, 0, 3,20.00,30.00,Saturday
8,66772161.97852827
2,4, 1, 4, 0, 3,30.00,40.00,Saturday
8,65838548.300201856
2,4, 1, 4, 0, 3,40.00,50.00,Saturday
8,65462582.581948444
2,4, 1, 4, 0, 3,50.00,60.00,Saturday
8,65086923.47949014
2,4, 1, 4, 0, 4, 0.00,10.00,Saturday
8,66176747.90270685
2,4, 1, 4, 0, 4,10.00,20.00,Saturday
8,66211123.17064099
2,4, 1, 4, 0, 4,20.00,30.00,Saturday
8,66814527.857659645
2,4, 1, 4, 0, 4,30.00,40.00,Saturday
8,67418471.14544164
2,4, 1, 4, 0, 4,40.00,50.00,Saturday
8,68580348.88160461
2,4, 1, 4, 0, 4,50.00,60.00,Saturday
8,68622611.12259392
2,4, 1, 4, 0, 5, 0.00,10.00,Saturday
8,68621223.4984177
2,4, 1, 4, 0, 5,10.00,20.00,Saturday
8,68606307.82228082
2,4, 1, 4, 0, 5,20.00,30.00,Saturday
8,69147283.54935867
2,4, 1, 4, 0, 5,30.00,40.00,Saturday
8,68570039.65017366
2,4, 1, 4, 0, 5,40.00,50.00,Saturday
8,68550893.83262062
2,4, 1, 4, 0, 5,50.00,60.00,Saturday
8,68531865.66336797
2,4, 1, 4, 0, 6, 0.00,10.00,Saturday
8,69086364.42285849
2,4, 1, 4, 0, 6,10.00,20.00,Saturday
8,68487010.58802642
2,4, 1, 4, 0, 6,20.00,30.00,Saturday
8,68436442.34564857
2,4, 1, 4, 0, 6,30.00,40.00,Saturday
8,68382003.01283272
2,4, 1, 4, 0, 6,40.00,50.00,Saturday
8,68883766.8105496
2,4, 1, 4, 0, 6,50.00,60.00,Saturday
8,68264833.47143313
2,4, 1, 4, 0, 7, 0.00,10.00,Saturday
8,69021483.36413789
2,4, 1, 4, 0, 7,10.00,20.00,Saturday
8,69839042.20717716
2,4, 1, 4, 0, 7,20.00,30.00,Saturday
8,71231573.48558688
2,4, 1, 4, 0, 7,30.00,40.00,Saturday
8,71509692.54418004
2,4, 1, 4, 0, 7,40.00,50.00,Saturday
8,72349488.24870597
2,4, 1, 4, 0, 7,50.00,60.00,Saturday
8,73191643.74942014
2,4, 1, 4, 0, 8, 0.00,10.00,Saturday
8,113041908.45821312
2,4, 1, 4, 0, 8,10.00,20.00,Saturday
8,88676974.34104903
2,4, 1, 4, 0, 8,20.00,30.00,Saturday
8,89312275.51101555
2,4, 1, 4, 0, 8,30.00,40.00,Saturday
8,86274428.17624047
2,4, 1, 4, 0, 8,40.00,50.00,Saturday
8,85243486.02097306
2,4, 1, 4, 0, 8,50.00,60.00,Saturday
8,83922969.47862229
2,4, 1, 4, 0, 9, 0.00,10.00,Saturday
8,121835324.31067033
2,4, 1, 4, 0, 9,10.00,20.00,Saturday
8,131802148.78814982
2,4, 1, 4, 0, 9,20.00,30.00,Saturday
8,100071746.25705169
2,4, 1, 4, 0, 9,30.00,40.00,Saturday
8,110575109.55269228
2,4, 1, 4, 0, 9,40.00,50.00,Saturday
8,108730608.10819356
2,4, 1, 4, 0, 9,50.00,60.00,Saturday
8,106263906.3382128
2,4, 1, 4, 0,10, 0.00,10.00,Saturday
8,203217907.76564193
2,4, 1, 4, 0,10,10.00,20.00,Saturday
8,196584941.7742444
2,4, 1, 4, 0,10,20.00,30.00,Saturday
8,193174128.7029104
2,4, 1, 4, 0,10,30.00,40.00,Saturday
8,191253046.8152245
2,4, 1, 4, 0,10,40.00,50.00,Saturday
8,188342803.27226335
2,4, 1, 4, 0,10,50.00,60.00,Saturday
8,187111010.3581819
2,4, 1, 4, 0,11, 0.00,10.00,Saturday
8,182059217.09253773
2,4, 1, 4, 0,11,10.00,20.00,Saturday
8,180605465.78441596
2,4, 1, 4, 0,11,20.00,30.00,Saturday
8,179579556.5974988
2,4, 1, 4, 0,11,30.00,40.00,Saturday
8,178659146.95939732
2,4, 1, 4, 0,11,40.00,50.00,Saturday
8,177791694.30220148
2,4, 1, 4, 0,11,50.00,60.00,Saturday
8,177196918.60186335
2,4, 1, 4, 0,12, 0.00,10.00,Saturday
8,171295836.786657
2,4, 1, 4, 0,12,10.00,20.00,Saturday
8,167408756.59757537
2,4, 1, 4, 0,12,20.00,30.00,Saturday
8,163750118.68982774
2,4, 1, 4, 0,12,30.00,40.00,Saturday
8,160388006.15314147
2,4, 1, 4, 0,12,40.00,50.00,Saturday
8,157154175.2433367
2,4, 1, 4, 0,12,50.00,60.00,Saturday
8,154010606.66440302
2,4, 1, 4, 0,13, 0.00,10.00,Saturday
8,150089840.72193083
2,4, 1, 4, 0,13,10.00,20.00,Saturday
8,148345604.95361355
2,4, 1, 4, 0,13,20.00,30.00,Saturday
8,146499414.68754175
2,4, 1, 4, 0,13,30.00,40.00,Saturday
8,144796753.68972242
2,4, 1, 4, 0,13,40.00,50.00,Saturday
8,143178041.59256035
2,4, 1, 4, 0,13,50.00,60.00,Saturday
8,141625659.76162905
2,4, 1, 4, 0,14, 0.00,10.00,Saturday
8,138924830.76928353
2,4, 1, 4, 0,14,10.00,20.00,Saturday
8,137261800.95318204