Program Version,EnergyPlus, Version 23.2.0-7636e6b3e9, YMD=2025.01.12 17:47
1,5,Environment Title[],Latitude[deg],Longitude[deg],Time Zone[],Elevation[m]
2,8,Day of Simulation[],Month[],Day of Month[],DST Indicator[1=yes 0=no],Hour[],StartMinute[],EndMinute[],DayType
3,5,Cumulative Day of Simulation[],Month[],Day of Month[],DST Indicator[1=yes 0=no],DayType  ! When Daily Report Variables Requested
4,2,Cumulative Days of Simulation[],Month[]  ! When Monthly Report Variables Requested
5,1,Cumulative Days of Simulation[] ! When Run Period Report Variables Requested
6,1,Calendar Year of Simulation[] ! When Annual Report Variables Requested
8,1,Electricity:Facility [J] !TimeStep
1648,1,DistrictCooling:Facility [J] !TimeStep
End of Data Dictionary
1,CALGARY INTL AP ANN CLG .4% CONDNS DB=>MWB HVAC Sizing Pass 1,  51.11,-114.02,  -7.00,1084.10
2,1, 7,21, 0, 1, 0.00,10.00,SummerDesignDay
8,1291806.0197999983
1648,0.0
2,1, 7,21, 0, 1,10.00,20.00,SummerDesignDay
8,1291806.0197999983
1648,0.0
2,1, 7,21, 0, 1,20.00,30.00,SummerDesignDay
8,1291806.0197999983
1648,0.0
2,1, 7,21, 0, 1,30.00,40.00,SummerDesignDay
8,1291806.0197999983
1648,0.0
2,1, 7,21, 0, 1,40.00,50.00,SummerDesignDay
8,1291806.0197999983
1648,0.0
2,1, 7,21, 0, 1,50.00,60.00,SummerDesignDay
8,1291806.0197999983
1648,0.0
2,1, 7,21, 0, 2, 0.00,10.00,SummerDesignDay
8,1291806.0197999983
1648,0.0
2,1, 7,21, 0, 2,10.00,20.00,SummerDesignDay
8,1291806.0197999983
1648,0.0
2,1, 7,21, 0, 2,20.00,30.00,SummerDesignDay
8,1291806.0197999983
1648,0.0
2,1, 7,21, 0, 2,30.00,40.00,SummerDesignDay
8,1291806.0197999983
1648,0.0
2,1, 7,21, 0, 2,40.00,50.00,SummerDesignDay
8,1291806.0197999983
1648,0.0
2,1, 7,21, 0, 2,50.00,60.00,SummerDesignDay
8,1291806.0197999983
1648,0.0
2,1, 7,21, 0, 3, 0.00,10.00,SummerDesignDay
8,1291806.0197999983
1648,0.0
2,1, 7,21, 0, 3,10.00,20.00,SummerDesignDay
8,1291806.0197999983
1648,0.0
2,1, 7,21, 0, 3,20.00,30.00,SummerDesignDay
8,1291806.0197999983
1648,0.0
2,1, 7,21, 0, 3,30.00,40.00,SummerDesignDay
8,1291806.0197999983
1648,0.0
2,1, 7,21, 0, 3,40.00,50.00,SummerDesignDay
8,1291806.0197999983
1648,0.0
2,1, 7,21, 0, 3,50.00,60.00,SummerDesignDay
8,1291806.0197999983
1648,0.0
2,1, 7,21, 0, 4, 0.00,10.00,SummerDesignDay
8,1291806.0197999983
1648,0.0
2,1, 7,21, 0, 4,10.00,20.00,SummerDesignDay
8,1291806.0197999983
1648,0.0
2,1, 7,21, 0, 4,20.00,30.00,SummerDesignDay
8,1291806.0197999983
1648,0.0
2,1, 7,21, 0, 4,30.00,40.00,SummerDesignDay
8,1291806.0197999983
1648,0.0
2,1, 7,21, 0, 4,40.00,50.00,SummerDesignDay
8,1291806.0197999983
1648,0.0
2,1, 7,21, 0, 4,50.00,60.00,SummerDesignDay
8,1291806.0197999983
1648,0.0
2,1, 7,21, 0, 5, 0.00,10.00,SummerDesignDay
8,1291806.0197999983
1648,0.0
2,1, 7,21, 0, 5,10.00,20.00,SummerDesignDay
8,1291806.0197999983
1648,0.0
2,1, 7,21, 0, 5,20.00,30.00,SummerDesignDay
8,1291806.0197999983
1648,0.0
2,1, 7,21, 0, 5,30.00,40.00,SummerDesignDay
8,1291806.0197999983
1648,0.0
2,1, 7,21, 0, 5,40.00,50.00,SummerDesignDay
8,1291806.0197999983
1648,0.0
2,1, 7,21, 0, 5,50.00,60.00,SummerDesignDay
8,1291806.0197999983
1648,0.0
2,1, 7,21, 0, 6, 0.00,10.00,SummerDesignDay
8,1291806.0197999983
1648,0.0
2,1, 7,21, 0, 6,10.00,20.00,SummerDesignDay
8,1291806.0197999983
1648,0.0
2,1, 7,21, 0, 6,20.00,30.00,SummerDesignDay
8,1291806.0197999983
1648,0.0
2,1, 7,21, 0, 6,30.00,40.00,SummerDesignDay
8,1291806.0197999983
1648,0.0
2,1, 7,21, 0, 6,40.00,50.00,SummerDesignDay
8,1291806.0197999983
1648,0.0
2,1, 7,21, 0, 6,50.00,60.00,SummerDesignDay
8,1291806.0197999983
1648,0.0
2,1, 7,21, 0, 7, 0.00,10.00,SummerDesignDay
8,1291806.0197999983
1648,0.0
2,1, 7,21, 0, 7,10.00,20.00,SummerDesignDay
8,1291806.0197999983
1648,0.0
2,1, 7,21, 0, 7,20.00,30.00,SummerDesignDay
8,1291806.0197999983
1648,0.0
2,1, 7,21, 0, 7,30.00,40.00,SummerDesignDay
8,1291806.0197999983
1648,0.0
2,1, 7,21, 0, 7,40.00,50.00,SummerDesignDay
8,1291806.0197999983
1648,0.0
2,1, 7,21, 0, 7,50.00,60.00,SummerDesignDay
8,1291806.0197999983
1648,0.0
2,1, 7,21, 0, 8, 0.00,10.00,SummerDesignDay
8,1291806.0197999983
1648,0.0
2,1, 7,21, 0, 8,10.00,20.00,SummerDesignDay
8,1291806.0197999983
1648,0.0
2,1, 7,21, 0, 8,20.00,30.00,SummerDesignDay
8,1291806.0197999983
1648,0.0
2,1, 7,21, 0, 8,30.00,40.00,SummerDesignDay
8,1291806.0197999983
1648,0.0
2,1, 7,21, 0, 8,40.00,50.00,SummerDesignDay
8,1291806.0197999983
1648,0.0
2,1, 7,21, 0, 8,50.00,60.00,SummerDesignDay
8,1291806.0197999983
1648,0.0
2,1, 7,21, 0, 9, 0.00,10.00,SummerDesignDay
8,12918060.197999982
1648,0.0
2,1, 7,21, 0, 9,10.00,20.00,SummerDesignDay
8,12918060.197999982
1648,0.0
2,1, 7,21, 0, 9,20.00,30.00,SummerDesignDay
8,12918060.197999982
1648,0.0
2,1, 7,21, 0, 9,30.00,40.00,SummerDesignDay
8,12918060.197999982
1648,0.0
2,1, 7,21, 0, 9,40.00,50.00,SummerDesignDay
8,12918060.197999982
1648,0.0
2,1, 7,21, 0, 9,50.00,60.00,SummerDesignDay
8,12918060.197999982
1648,0.0
2,1, 7,21, 0,10, 0.00,10.00,SummerDesignDay
8,23252508.356399987
1648,3849825.542648769
2,1, 7,21, 0,10,10.00,20.00,SummerDesignDay
8,23252508.356399987
1648,12817802.517713446
2,1, 7,21, 0,10,20.00,30.00,SummerDesignDay
8,23252508.356399987
1648,17634537.313890435
2,1, 7,21, 0,10,30.00,40.00,SummerDesignDay
8,23252508.356399987
1648,20567804.327949826
2,1, 7,21, 0,10,40.00,50.00,SummerDesignDay
8,23252508.356399987
1648,25434014.700961575
2,1, 7,21, 0,10,50.00,60.00,SummerDesignDay
8,23252508.356399987
1648,29367868.973718964
2,1, 7,21, 0,11, 0.00,10.00,SummerDesignDay
8,23252508.356399987
1648,33594609.54891467
2,1, 7,21, 0,11,10.00,20.00,SummerDesignDay
8,23252508.356399987
1648,36932753.09806253
2,1, 7,21, 0,11,20.00,30.00,SummerDesignDay
8,23252508.356399987
1648,40042299.69970203
2,1, 7,21, 0,11,30.00,40.00,SummerDesignDay
8,23252508.356399987
1648,42951827.22160483
2,1, 7,21, 0,11,40.00,50.00,SummerDesignDay
8,23252508.356399987
1648,45666716.83619275
2,1, 7,21, 0,11,50.00,60.00,SummerDesignDay
8,23252508.356399987
1648,48202537.0893039
2,1, 7,21, 0,12, 0.00,10.00,SummerDesignDay
8,23252508.356399987
1648,50214149.058995984
2,1, 7,21, 0,12,10.00,20.00,SummerDesignDay
8,23252508.356399987
1648,52076480.30629397
2,1, 7,21, 0,12,20.00,30.00,SummerDesignDay
8,23252508.356399987
1648,53803444.139560945
2,1, 7,21, 0,12,30.00,40.00,SummerDesignDay
8,23252508.356399987
1648,55413385.23976433
2,1, 7,21, 0,12,40.00,50.00,SummerDesignDay
8,23252508.356399987
1648,56914228.86518101
2,1, 7,21, 0,12,50.00,60.00,SummerDesignDay
8,23252508.356399987
1648,58311849.04898484
2,1, 7,21, 0,13, 0.00,10.00,SummerDesignDay
8,23252508.356399987
1648,59951319.86820066
2,1, 7,21, 0,13,10.00,20.00,SummerDesignDay
8,23252508.356399987
1648,61084821.54153993
2,1, 7,21, 0,13,20.00,30.00,SummerDesignDay
8,23252508.356399987
1648,62129870.42026272
2,1, 7,21, 0,13,30.00,40.00,SummerDesignDay
8,23252508.356399987
1648,63073458.538787395
2,1, 7,21, 0,13,40.00,50.00,SummerDesignDay
8,23252508.356399987
1648,63904616.44936079
2,1, 7,21, 0,13,50.00,60.00,SummerDesignDay
8,23252508.356399987
1648,64639917.06602128
2,1, 7,21, 0,14, 0.00,10.00,SummerDesignDay
8,23252508.356399987
1648,65066464.657110825
2,1, 7,21, 0,14,10.00,20.00,SummerDesignDay
8,23252508.356399987
1648,65408525.181592606
2,1, 7,21, 0,14,20.00,30.00,SummerDesignDay
8,23252508.356399987
1648,65669065.93717649
2,1, 7,21, 0,14,30.00,40.00,SummerDesignDay
8,23252508.356399987
1648,65847075.19278971
2,1, 7,21, 0,14,40.00,50.00,SummerDesignDay
8,23252508.356399987
1648,65948649.854287945
2,1, 7,21, 0,14,50.00,60.00,SummerDesignDay
8,23252508.356399987
1648,65975631.098718286
2,1, 7,21, 0,15, 0.00,10.00,SummerDesignDay
8,23252508.356399987
1648,65566034.44978243
2,1, 7,21, 0,15,10.00,20.00,SummerDesignDay
8,23252508.356399987
1648,65075627.942869104
2,1, 7,21, 0,15,20.00,30.00,SummerDesignDay
8,23252508.356399987
1648,64516687.61253346
2,1, 7,21, 0,15,30.00,40.00,SummerDesignDay
8,23252508.356399987
1648,63891927.72157843
2,1, 7,21, 0,15,40.00,50.00,SummerDesignDay
8,23252508.356399987
1648,63204290.00556912
2,1, 7,21, 0,15,50.00,60.00,SummerDesignDay
8,23252508.356399987
1648,62457860.829445526
2,1, 7,21, 0,16, 0.00,10.00,SummerDesignDay
8,23252508.356399987
1648,61220485.44271689
2,1, 7,21, 0,16,10.00,20.00,SummerDesignDay
8,23252508.356399987
1648,59922529.76909224
2,1, 7,21, 0,16,20.00,30.00,SummerDesignDay
8,23252508.356399987
1648,58579984.083195634
2,1, 7,21, 0,16,30.00,40.00,SummerDesignDay
8,23252508.356399987
1648,57199058.22186212
2,1, 7,21, 0,16,40.00,50.00,SummerDesignDay
8,23252508.356399987
1648,55787209.93373615
2,1, 7,21, 0,16,50.00,60.00,SummerDesignDay
8,23252508.356399987
1648,54352490.53719466
2,1, 7,21, 0,17, 0.00,10.00,SummerDesignDay
8,23252508.356399987
1648,53001690.28083334
2,1, 7,21, 0,17,10.00,20.00,SummerDesignDay
8,23252508.356399987
1648,51423219.95119318
2,1, 7,21, 0,17,20.00,30.00,SummerDesignDay
8,23252508.356399987
1648,49844311.8599781
2,1, 7,21, 0,17,30.00,40.00,SummerDesignDay
8,23252508.356399987
1648,48276026.36968266
2,1, 7,21, 0,17,40.00,50.00,SummerDesignDay
8,23252508.356399987
1648,46729653.7900337
2,1, 7,21, 0,17,50.00,60.00,SummerDesignDay
8,23252508.356399987
1648,45220843.057971485
2,1, 7,21, 0,18, 0.00,10.00,SummerDesignDay
8,23252508.356399987
1648,43375740.89158054
2,1, 7,21, 0,18,10.00,20.00,SummerDesignDay
8,23252508.356399987
1648,41815556.98278662
2,1, 7,21, 0,18,20.00,30.00,SummerDesignDay
8,23252508.356399987
1648,40349166.67334978
2,1, 7,21, 0,18,30.00,40.00,SummerDesignDay
8,23252508.356399987
1648,39018431.402359344
2,1, 7,21, 0,18,40.00,50.00,SummerDesignDay
8,23252508.356399987
1648,37750144.970796816
2,1, 7,21, 0,18,50.00,60.00,SummerDesignDay
8,23252508.356399987
1648,36452262.8672347
2,1, 7,21, 0,19, 0.00,10.00,SummerDesignDay
8,23252508.356399987
1648,34350735.22166059
2,1, 7,21, 0,19,10.00,20.00,SummerDesignDay
8,23252508.356399987
1648,32713323.986487962
2,1, 7,21, 0,19,20.00,30.00,SummerDesignDay
8,23252508.356399987
1648,31092158.33484011
2,1, 7,21, 0,19,30.00,40.00,SummerDesignDay
8,23252508.356399987
1648,29472205.128610726
2,1, 7,21, 0,19,40.00,50.00,SummerDesignDay
8,23252508.356399987
1648,27860175.219531618
2,1, 7,21, 0,19,50.00,60.00,SummerDesignDay
8,23252508.356399987
1648,26246669.208882272
2,1, 7,21, 0,20, 0.00,10.00,SummerDesignDay
8,15501672.237599976
1648,20260816.980853118
2,1, 7,21, 0,20,10.00,20.00,SummerDesignDay
8,15501672.237599976
1648,18181691.866569333
2,1, 7,21, 0,20,20.00,30.00,SummerDesignDay
8,15501672.237599976
1648,16484955.25555456
2,1, 7,21, 0,20,30.00,40.00,SummerDesignDay
8,15501672.237599976
1648,14846736.591013793
2,1, 7,21, 0,20,40.00,50.00,SummerDesignDay
8,15501672.237599976
1648,13258446.749948276
2,1, 7,21, 0,20,50.00,60.00,SummerDesignDay
8,15501672.237599976
1648,11704347.64068627
2,1, 7,21, 0,21, 0.00,10.00,SummerDesignDay
8,12918060.197999982
1648,9027710.280205326
2,1, 7,21, 0,21,10.00,20.00,SummerDesignDay
8,12918060.197999982
1648,7494884.5313635655
2,1, 7,21, 0,21,20.00,30.00,SummerDesignDay
8,12918060.197999982
1648,6132485.519421866
2,1, 7,21, 0,21,30.00,40.00,SummerDesignDay
8,12918060.197999982
1648,4760654.545215314
2,1, 7,21, 0,21,40.00,50.00,SummerDesignDay
8,12918060.197999982
1648,3610644.0528990286
2,1, 7,21, 0,21,50.00,60.00,SummerDesignDay
8,12918060.197999982
1648,2579401.5716680563
2,1, 7,21, 0,22, 0.00,10.00,SummerDesignDay
8,1291806.0197999983
1648,0.0
2,1, 7,21, 0,22,10.00,20.00,SummerDesignDay
8,1291806.0197999983
1648,0.0
2,1, 7,21, 0,22,20.00,30.00,SummerDesignDay
8,1291806.0197999983
1648,0.0
2,1, 7,21, 0,22,30.00,40.00,SummerDesignDay
8,1291806.0197999983
1648,0.0
2,1, 7,21, 0,22,40.00,50.00,SummerDesignDay
8,1291806.0197999983
1648,0.0
2,1, 7,21, 0,22,50.00,60.00,SummerDesignDay
8,1291806.0197999983
1648,0.0
2,1, 7,21, 0,23, 0.00,10.00,SummerDesignDay
8,1291806.0197999983
1648,0.0
2,1, 7,21, 0,23,10.00,20.00,SummerDesignDay
8,1291806.0197999983
1648,0.0
2,1, 7,21, 0,23,20.00,30.00,SummerDesignDay
8,1291806.0197999983
1648,0.0
2,1, 7,21, 0,23,30.00,40.00,SummerDesignDay
8,1291806.0197999983
1648,0.0
2,1, 7,21, 0,23,40.00,50.00,SummerDesignDay
8,1291806.0197999983
1648,0.0
2,1, 7,21, 0,23,50.00,60.00,SummerDesignDay
8,1291806.0197999983
1648,0.0
2,1, 7,21, 0,24, 0.00,10.00,SummerDesignDay
8,1291806.0197999983
1648,0.0
2,1, 7,21, 0,24,10.00,20.00,SummerDesignDay
8,1291806.0197999983
1648,0.0
2,1, 7,21, 0,24,20.00,30.00,SummerDesignDay
8,1291806.0197999983
1648,0.0
2,1, 7,21, 0,24,30.00,40.00,SummerDesignDay
8,1291806.0197999983
1648,0.0
2,1, 7,21, 0,24,40.00,50.00,SummerDesignDay
8,1291806.0197999983
1648,0.0
2,1, 7,21, 0,24,50.00,60.00,SummerDesignDay
8,1291806.0197999983
1648,0.0
1,CALGARY INTL AP ANN CLG .4% CONDNS WB=>MDB HVAC Sizing Pass 1,  51.11,-114.02,  -7.00,1084.10
2,1, 7,21, 0, 1, 0.00,10.00,SummerDesignDay
8,1291806.0197999983
1648,0.0
2,1, 7,21, 0, 1,10.00,20.00,SummerDesignDay
8,1291806.0197999983
1648,0.0
2,1, 7,21, 0, 1,20.00,30.00,SummerDesignDay
8,1291806.0197999983
1648,0.0
2,1, 7,21, 0, 1,30.00,40.00,SummerDesignDay
8,1291806.0197999983
1648,0.0
2,1, 7,21, 0, 1,40.00,50.00,SummerDesignDay
8,1291806.0197999983
1648,0.0
2,1, 7,21, 0, 1,50.00,60.00,SummerDesignDay
8,1291806.0197999983
1648,0.0
2,1, 7,21, 0, 2, 0.00,10.00,SummerDesignDay
8,1291806.0197999983
1648,0.0
2,1, 7,21, 0, 2,10.00,20.00,SummerDesignDay
8,1291806.0197999983
1648,0.0
2,1, 7,21, 0, 2,20.00,30.00,SummerDesignDay
8,1291806.0197999983
1648,0.0
2,1, 7,21, 0, 2,30.00,40.00,SummerDesignDay
8,1291806.0197999983
1648,0.0
2,1, 7,21, 0, 2,40.00,50.00,SummerDesignDay
8,1291806.0197999983
1648,0.0
2,1, 7,21, 0, 2,50.00,60.00,SummerDesignDay
8,1291806.0197999983
1648,0.0
2,1, 7,21, 0, 3, 0.00,10.00,SummerDesignDay
8,1291806.0197999983
1648,0.0
2,1, 7,21, 0, 3,10.00,20.00,SummerDesignDay
8,1291806.0197999983
1648,0.0
2,1, 7,21, 0, 3,20.00,30.00,SummerDesignDay
8,1291806.0197999983
1648,0.0
2,1, 7,21, 0, 3,30.00,40.00,SummerDesignDay
8,1291806.0197999983
1648,0.0
2,1, 7,21, 0, 3,40.00,50.00,SummerDesignDay
8,1291806.0197999983
1648,0.0
2,1, 7,21, 0, 3,50.00,60.00,SummerDesignDay
8,1291806.0197999983
1648,0.0
2,1, 7,21, 0, 4, 0.00,10.00,SummerDesignDay
8,1291806.0197999983
1648,0.0
2,1, 7,21, 0, 4,10.00,20.00,SummerDesignDay
8,1291806.0197999983
1648,0.0
2,1, 7,21, 0, 4,20.00,30.00,SummerDesignDay
8,1291806.0197999983
1648,0.0
2,1, 7,21, 0, 4,30.00,40.00,SummerDesignDay
8,1291806.0197999983
1648,0.0
2,1, 7,21, 0, 4,40.00,50.00,SummerDesignDay
8,1291806.0197999983
1648,0.0
2,1, 7,21, 0, 4,50.00,60.00,SummerDesignDay
8,1291806.0197999983
1648,0.0
2,1, 7,21, 0, 5, 0.00,10.00,SummerDesignDay
8,1291806.0197999983
1648,0.0
2,1, 7,21, 0, 5,10.00,20.00,SummerDesignDay
8,1291806.0197999983
1648,0.0
2,1, 7,21, 0, 5,20.00,30.00,SummerDesignDay
8,1291806.0197999983
1648,0.0
2,1, 7,21, 0, 5,30.00,40.00,SummerDesignDay
8,1291806.0197999983
1648,0.0
2,1, 7,21, 0, 5,40.00,50.00,SummerDesignDay
8,1291806.0197999983
1648,0.0
2,1, 7,21, 0, 5,50.00,60.00,SummerDesignDay
8,1291806.0197999983
1648,0.0
2,1, 7,21, 0, 6, 0.00,10.00,SummerDesignDay
8,1291806.0197999983
1648,0.0
2,1, 7,21, 0, 6,10.00,20.00,SummerDesignDay
8,1291806.0197999983
1648,0.0
2,1, 7,21, 0, 6,20.00,30.00,SummerDesignDay
8,1291806.0197999983
1648,0.0
2,1, 7,21, 0, 6,30.00,40.00,SummerDesignDay
8,1291806.0197999983
1648,0.0
2,1, 7,21, 0, 6,40.00,50.00,SummerDesignDay
8,1291806.0197999983
1648,0.0
2,1, 7,21, 0, 6,50.00,60.00,SummerDesignDay
8,1291806.0197999983
1648,0.0
2,1, 7,21, 0, 7, 0.00,10.00,SummerDesignDay
8,1291806.0197999983
1648,0.0
2,1, 7,21, 0, 7,10.00,20.00,SummerDesignDay
8,1291806.0197999983
1648,0.0
2,1, 7,21, 0, 7,20.00,30.00,SummerDesignDay
8,1291806.0197999983
1648,0.0
2,1, 7,21, 0, 7,30.00,40.00,SummerDesignDay
8,1291806.0197999983
1648,0.0
2,1, 7,21, 0, 7,40.00,50.00,SummerDesignDay
8,1291806.0197999983
1648,0.0
2,1, 7,21, 0, 7,50.00,60.00,SummerDesignDay
8,1291806.0197999983
1648,0.0
2,1, 7,21, 0, 8, 0.00,10.00,SummerDesignDay
8,1291806.0197999983
1648,0.0
2,1, 7,21, 0, 8,10.00,20.00,SummerDesignDay
8,1291806.0197999983
1648,0.0
2,1, 7,21, 0, 8,20.00,30.00,SummerDesignDay
8,1291806.0197999983
1648,0.0
2,1, 7,21, 0, 8,30.00,40.00,SummerDesignDay
8,1291806.0197999983
1648,0.0
2,1, 7,21, 0, 8,40.00,50.00,SummerDesignDay
8,1291806.0197999983
1648,0.0
2,1, 7,21, 0, 8,50.00,60.00,SummerDesignDay
8,1291806.0197999983
1648,0.0
2,1, 7,21, 0, 9, 0.00,10.00,SummerDesignDay
8,12918060.197999982
1648,0.0
2,1, 7,21, 0, 9,10.00,20.00,SummerDesignDay
8,12918060.197999982
1648,0.0
2,1, 7,21, 0, 9,20.00,30.00,SummerDesignDay
8,12918060.197999982
1648,0.0
2,1, 7,21, 0, 9,30.00,40.00,SummerDesignDay
8,12918060.197999982
1648,0.0
2,1, 7,21, 0, 9,40.00,50.00,SummerDesignDay
8,12918060.197999982
1648,0.0
2,1, 7,21, 0, 9,50.00,60.00,SummerDesignDay
8,12918060.197999982
1648,0.0
2,1, 7,21, 0,10, 0.00,10.00,SummerDesignDay
8,23252508.356399987
1648,0.0
2,1, 7,21, 0,10,10.00,20.00,SummerDesignDay
8,23252508.356399987
1648,0.0
2,1, 7,21, 0,10,20.00,30.00,SummerDesignDay
8,23252508.356399987
1648,0.0
2,1, 7,21, 0,10,30.00,40.00,SummerDesignDay
8,23252508.356399987
1648,683794.2036827755
2,1, 7,21, 0,10,40.00,50.00,SummerDesignDay
8,23252508.356399987
1648,11260176.948426109
2,1, 7,21, 0,10,50.00,60.00,SummerDesignDay
8,23252508.356399987
1648,23868937.235352956
2,1, 7,21, 0,11, 0.00,10.00,SummerDesignDay
8,23252508.356399987
1648,23868189.263374824
2,1, 7,21, 0,11,10.00,20.00,SummerDesignDay
8,23252508.356399987
1648,30549064.63551077
2,1, 7,21, 0,11,20.00,30.00,SummerDesignDay
8,23252508.356399987
1648,35666385.90377272
2,1, 7,21, 0,11,30.00,40.00,SummerDesignDay
8,23252508.356399987
1648,40202764.983043775
2,1, 7,21, 0,11,40.00,50.00,SummerDesignDay
8,23252508.356399987
1648,44398672.57853741
2,1, 7,21, 0,11,50.00,60.00,SummerDesignDay
8,23252508.356399987
1648,48297462.93976906
2,1, 7,21, 0,12, 0.00,10.00,SummerDesignDay
8,23252508.356399987
1648,51409666.535046645
2,1, 7,21, 0,12,10.00,20.00,SummerDesignDay
8,23252508.356399987
1648,54272431.95244976
2,1, 7,21, 0,12,20.00,30.00,SummerDesignDay
8,23252508.356399987
1648,56915038.65574659
2,1, 7,21, 0,12,30.00,40.00,SummerDesignDay
8,23252508.356399987
1648,59352559.916684784
2,1, 7,21, 0,12,40.00,50.00,SummerDesignDay
8,23252508.356399987
1648,61611872.18844476
2,1, 7,21, 0,12,50.00,60.00,SummerDesignDay
8,23252508.356399987
1648,63705588.04980968
2,1, 7,21, 0,13, 0.00,10.00,SummerDesignDay
8,23252508.356399987
1648,66113366.479281
2,1, 7,21, 0,13,10.00,20.00,SummerDesignDay
8,23252508.356399987
1648,67728837.56211004
2,1, 7,21, 0,13,20.00,30.00,SummerDesignDay
8,23252508.356399987
1648,69186047.45993374
2,1, 7,21, 0,13,30.00,40.00,SummerDesignDay
8,23252508.356399987
1648,70508904.88200463
2,1, 7,21, 0,13,40.00,50.00,SummerDesignDay
8,23252508.356399987
1648,71700266.53821854
2,1, 7,21, 0,13,50.00,60.00,SummerDesignDay
8,23252508.356399987
1648,72760558.22459699
2,1, 7,21, 0,14, 0.00,10.00,SummerDesignDay
8,23252508.356399987
1648,73388364.73467404
2,1, 7,21, 0,14,10.00,20.00,SummerDesignDay
8,23252508.356399987
1648,73899760.08171211
2,1, 7,21, 0,14,20.00,30.00,SummerDesignDay
8,23252508.356399987
1648,74295429.32284212
2,1, 7,21, 0,14,30.00,40.00,SummerDesignDay
8,23252508.356399987
1648,74572813.08106078
2,1, 7,21, 0,14,40.00,50.00,SummerDesignDay
8,23252508.356399987
1648,74740469.47461921
2,1, 7,21, 0,14,50.00,60.00,SummerDesignDay
8,23252508.356399987
1648,74801635.73796721
2,1, 7,21, 0,15, 0.00,10.00,SummerDesignDay
8,23252508.356399987
1648,74240307.87505007
2,1, 7,21, 0,15,10.00,20.00,SummerDesignDay
8,23252508.356399987
1648,73563729.26940057
2,1, 7,21, 0,15,20.00,30.00,SummerDesignDay
8,23252508.356399987
1648,72788987.2512939
2,1, 7,21, 0,15,30.00,40.00,SummerDesignDay
8,23252508.356399987
1648,71920295.48625068
2,1, 7,21, 0,15,40.00,50.00,SummerDesignDay
8,23252508.356399987
1648,70962263.04110625
2,1, 7,21, 0,15,50.00,60.00,SummerDesignDay
8,23252508.356399987
1648,69921020.92060173
2,1, 7,21, 0,16, 0.00,10.00,SummerDesignDay
8,23252508.356399987
1648,68180781.34506765
2,1, 7,21, 0,16,10.00,20.00,SummerDesignDay
8,23252508.356399987
1648,66355268.83800296
2,1, 7,21, 0,16,20.00,30.00,SummerDesignDay
8,23252508.356399987
1648,64466336.528997704
2,1, 7,21, 0,16,30.00,40.00,SummerDesignDay
8,23252508.356399987
1648,62523231.750755355
2,1, 7,21, 0,16,40.00,50.00,SummerDesignDay
8,23252508.356399987
1648,60536500.535666406
2,1, 7,21, 0,16,50.00,60.00,SummerDesignDay
8,23252508.356399987
1648,58518810.80398001
2,1, 7,21, 0,17, 0.00,10.00,SummerDesignDay
8,23252508.356399987
1648,56612966.89975522
2,1, 7,21, 0,17,10.00,20.00,SummerDesignDay
8,23252508.356399987
1648,54369056.1164207
2,1, 7,21, 0,17,20.00,30.00,SummerDesignDay
8,23252508.356399987
1648,52121603.97997954
2,1, 7,21, 0,17,30.00,40.00,SummerDesignDay
8,23252508.356399987
1648,49898949.363452025
2,1, 7,21, 0,17,40.00,50.00,SummerDesignDay
8,23252508.356399987
1648,47718418.387340635
2,1, 7,21, 0,17,50.00,60.00,SummerDesignDay
8,23252508.356399987
1648,45598125.19742439
2,1, 7,21, 0,18, 0.00,10.00,SummerDesignDay
8,23252508.356399987
1648,43014898.57239525
2,1, 7,21, 0,18,10.00,20.00,SummerDesignDay
8,23252508.356399987
1648,40843698.76193683
2,1, 7,21, 0,18,20.00,30.00,SummerDesignDay
8,23252508.356399987
1648,38798409.604837194
2,1, 7,21, 0,18,30.00,40.00,SummerDesignDay
8,23252508.356399987
1648,36933392.19151004
2,1, 7,21, 0,18,40.00,50.00,SummerDesignDay
8,23252508.356399987
1648,35150074.72347327
2,1, 7,21, 0,18,50.00,60.00,SummerDesignDay
8,23252508.356399987
1648,33321513.478200175
2,1, 7,21, 0,19, 0.00,10.00,SummerDesignDay
8,23252508.356399987
1648,30378486.895356804
2,1, 7,21, 0,19,10.00,20.00,SummerDesignDay
8,23252508.356399987
1648,28090025.8499131
2,1, 7,21, 0,19,20.00,30.00,SummerDesignDay
8,23252508.356399987
1648,25819306.68381364
2,1, 7,21, 0,19,30.00,40.00,SummerDesignDay
8,23252508.356399987
1648,23551582.3304099
2,1, 7,21, 0,19,40.00,50.00,SummerDesignDay
8,23252508.356399987
1648,21285900.874028545
2,1, 7,21, 0,19,50.00,60.00,SummerDesignDay
8,23252508.356399987
1648,19018109.471278
2,1, 7,21, 0,20, 0.00,10.00,SummerDesignDay
8,15501672.237599976
1648,10647231.279188441
2,1, 7,21, 0,20,10.00,20.00,SummerDesignDay
8,15501672.237599976
1648,7691540.509999089
2,1, 7,21, 0,20,20.00,30.00,SummerDesignDay
8,15501672.237599976
1648,5257668.991587718
2,1, 7,21, 0,20,30.00,40.00,SummerDesignDay
8,15501672.237599976
1648,2916517.1672747596
2,1, 7,21, 0,20,40.00,50.00,SummerDesignDay
8,15501672.237599976
1648,1038884.8930837454
2,1, 7,21, 0,20,50.00,60.00,SummerDesignDay
8,15501672.237599976
1648,0.0
2,1, 7,21, 0,21, 0.00,10.00,SummerDesignDay
8,12918060.197999982
1648,0.0
2,1, 7,21, 0,21,10.00,20.00,SummerDesignDay
8,12918060.197999982
1648,0.0
2,1, 7,21, 0,21,20.00,30.00,SummerDesignDay
8,12918060.197999982
1648,0.0
2,1, 7,21, 0,21,30.00,40.00,SummerDesignDay
8,12918060.197999982
1648,0.0
2,1, 7,21, 0,21,40.00,50.00,SummerDesignDay
8,12918060.197999982
1648,0.0
2,1, 7,21, 0,21,50.00,60.00,SummerDesignDay
8,12918060.197999982
1648,0.0
2,1, 7,21, 0,22, 0.00,10.00,SummerDesignDay
8,1291806.0197999983
1648,0.0
2,1, 7,21, 0,22,10.00,20.00,SummerDesignDay
8,1291806.0197999983
1648,0.0
2,1, 7,21, 0,22,20.00,30.00,SummerDesignDay
8,1291806.0197999983
1648,0.0
2,1, 7,21, 0,22,30.00,40.00,SummerDesignDay
8,1291806.0197999983
1648,0.0
2,1, 7,21, 0,22,40.00,50.00,SummerDesignDay
8,1291806.0197999983
1648,0.0
2,1, 7,21, 0,22,50.00,60.00,SummerDesignDay
8,1291806.0197999983
1648,0.0
2,1, 7,21, 0,23, 0.00,10.00,SummerDesignDay
8,1291806.0197999983
1648,0.0
2,1, 7,21, 0,23,10.00,20.00,SummerDesignDay
8,1291806.0197999983
1648,0.0
2,1, 7,21, 0,23,20.00,30.00,SummerDesignDay
8,1291806.0197999983
1648,0.0
2,1, 7,21, 0,23,30.00,40.00,SummerDesignDay
8,1291806.0197999983
1648,0.0
2,1, 7,21, 0,23,40.00,50.00,SummerDesignDay
8,1291806.0197999983
1648,0.0
2,1, 7,21, 0,23,50.00,60.00,SummerDesignDay
8,1291806.0197999983
1648,0.0
2,1, 7,21, 0,24, 0.00,10.00,SummerDesignDay
8,1291806.0197999983
1648,0.0
2,1, 7,21, 0,24,10.00,20.00,SummerDesignDay
8,1291806.0197999983
1648,0.0
2,1, 7,21, 0,24,20.00,30.00,SummerDesignDay
8,1291806.0197999983
1648,0.0
2,1, 7,21, 0,24,30.00,40.00,SummerDesignDay
8,1291806.0197999983
1648,0.0
2,1, 7,21, 0,24,40.00,50.00,SummerDesignDay
8,1291806.0197999983
1648,0.0
2,1, 7,21, 0,24,50.00,60.00,SummerDesignDay
8,1291806.0197999983
1648,0.0
1,CALGARY INTL AP ANN HTG 99.6% CONDNS DB HVAC Sizing Pass 1,  51.11,-114.02,  -7.00,1084.10
2,1, 1,21, 0, 1, 0.00,10.00,WinterDesignDay
8,1291806.0197999983
1648,0.0
2,1, 1,21, 0, 1,10.00,20.00,WinterDesignDay
8,1291806.0197999983
1648,0.0
2,1, 1,21, 0, 1,20.00,30.00,WinterDesignDay
8,1291806.0197999983
1648,0.0
2,1, 1,21, 0, 1,30.00,40.00,WinterDesignDay
8,1291806.0197999983
1648,0.0
2,1, 1,21, 0, 1,40.00,50.00,WinterDesignDay
8,1291806.0197999983
1648,0.0
2,1, 1,21, 0, 1,50.00,60.00,WinterDesignDay
8,1291806.0197999983
1648,0.0
2,1, 1,21, 0, 2, 0.00,10.00,WinterDesignDay
8,1291806.0197999983
1648,0.0
2,1, 1,21, 0, 2,10.00,20.00,WinterDesignDay
8,1291806.0197999983
1648,0.0
2,1, 1,21, 0, 2,20.00,30.00,WinterDesignDay
8,1291806.0197999983
1648,0.0
2,1, 1,21, 0, 2,30.00,40.00,WinterDesignDay
8,1291806.0197999983
1648,0.0
2,1, 1,21, 0, 2,40.00,50.00,WinterDesignDay
8,1291806.0197999983
1648,0.0
2,1, 1,21, 0, 2,50.00,60.00,WinterDesignDay
8,1291806.0197999983
1648,0.0
2,1, 1,21, 0, 3, 0.00,10.00,WinterDesignDay
8,1291806.0197999983
1648,0.0
2,1, 1,21, 0, 3,10.00,20.00,WinterDesignDay
8,1291806.0197999983
1648,0.0
2,1, 1,21, 0, 3,20.00,30.00,WinterDesignDay
8,1291806.0197999983
1648,0.0
2,1, 1,21, 0, 3,30.00,40.00,WinterDesignDay
8,1291806.0197999983
1648,0.0
2,1, 1,21, 0, 3,40.00,50.00,WinterDesignDay
8,1291806.0197999983
1648,0.0
2,1, 1,21, 0, 3,50.00,60.00,WinterDesignDay
8,1291806.0197999983
1648,0.0
2,1, 1,21, 0, 4, 0.00,10.00,WinterDesignDay
8,1291806.0197999983
1648,0.0
2,1, 1,21, 0, 4,10.00,20.00,WinterDesignDay
8,1291806.0197999983
1648,0.0
2,1, 1,21, 0, 4,20.00,30.00,WinterDesignDay
8,1291806.0197999983
1648,0.0
2,1, 1,21, 0, 4,30.00,40.00,WinterDesignDay
8,1291806.0197999983
1648,0.0
2,1, 1,21, 0, 4,40.00,50.00,WinterDesignDay
8,1291806.0197999983
1648,0.0
2,1, 1,21, 0, 4,50.00,60.00,WinterDesignDay
8,1291806.0197999983
1648,0.0
2,1, 1,21, 0, 5, 0.00,10.00,WinterDesignDay
8,1291806.0197999983
1648,0.0
2,1, 1,21, 0, 5,10.00,20.00,WinterDesignDay
8,1291806.0197999983
1648,0.0
2,1, 1,21, 0, 5,20.00,30.00,WinterDesignDay
8,1291806.0197999983
1648,0.0
2,1, 1,21, 0, 5,30.00,40.00,WinterDesignDay
8,1291806.0197999983
1648,0.0
2,1, 1,21, 0, 5,40.00,50.00,WinterDesignDay
8,1291806.0197999983
1648,0.0
2,1, 1,21, 0, 5,50.00,60.00,WinterDesignDay
8,1291806.0197999983
1648,0.0
2,1, 1,21, 0, 6, 0.00,10.00,WinterDesignDay
8,1291806.0197999983
1648,0.0
2,1, 1,21, 0, 6,10.00,20.00,WinterDesignDay
8,1291806.0197999983
1648,0.0
2,1, 1,21, 0, 6,20.00,30.00,WinterDesignDay
8,1291806.0197999983
1648,0.0
2,1, 1,21, 0, 6,30.00,40.00,WinterDesignDay
8,1291806.0197999983
1648,0.0
2,1, 1,21, 0, 6,40.00,50.00,WinterDesignDay
8,1291806.0197999983
1648,0.0
2,1, 1,21, 0, 6,50.00,60.00,WinterDesignDay
8,1291806.0197999983
1648,0.0
2,1, 1,21, 0, 7, 0.00,10.00,WinterDesignDay
8,1291806.0197999983
1648,0.0
2,1, 1,21, 0, 7,10.00,20.00,WinterDesignDay
8,1291806.0197999983
1648,0.0
2,1, 1,21, 0, 7,20.00,30.00,WinterDesignDay
8,1291806.0197999983
1648,0.0
2,1, 1,21, 0, 7,30.00,40.00,WinterDesignDay
8,1291806.0197999983
1648,0.0
2,1, 1,21, 0, 7,40.00,50.00,WinterDesignDay
8,1291806.0197999983
1648,0.0
2,1, 1,21, 0, 7,50.00,60.00,WinterDesignDay
8,1291806.0197999983
1648,0.0
2,1, 1,21, 0, 8, 0.00,10.00,WinterDesignDay
8,1291806.0197999983
1648,0.0
2,1, 1,21, 0, 8,10.00,20.00,WinterDesignDay
8,1291806.0197999983
1648,0.0
2,1, 1,21, 0, 8,20.00,30.00,WinterDesignDay
8,1291806.0197999983
1648,0.0
2,1, 1,21, 0, 8,30.00,40.00,WinterDesignDay
8,1291806.0197999983
1648,0.0
2,1, 1,21, 0, 8,40.00,50.00,WinterDesignDay
8,1291806.0197999983
1648,0.0
2,1, 1,21, 0, 8,50.00,60.00,WinterDesignDay
8,1291806.0197999983
1648,0.0
2,1, 1,21, 0, 9, 0.00,10.00,WinterDesignDay
8,12918060.197999982
1648,0.0
2,1, 1,21, 0, 9,10.00,20.00,WinterDesignDay
8,12918060.197999982
1648,0.0
2,1, 1,21, 0, 9,20.00,30.00,WinterDesignDay
8,12918060.197999982
1648,0.0
2,1, 1,21, 0, 9,30.00,40.00,WinterDesignDay
8,12918060.197999982
1648,0.0
2,1, 1,21, 0, 9,40.00,50.00,WinterDesignDay
8,12918060.197999982
1648,0.0
2,1, 1,21, 0, 9,50.00,60.00,WinterDesignDay
8,12918060.197999982
1648,0.0
2,1, 1,21, 0,10, 0.00,10.00,WinterDesignDay
8,23252508.356399987
1648,0.0
2,1, 1,21, 0,10,10.00,20.00,WinterDesignDay
8,23252508.356399987
1648,0.0
2,1, 1,21, 0,10,20.00,30.00,WinterDesignDay
8,23252508.356399987
1648,0.0
2,1, 1,21, 0,10,30.00,40.00,WinterDesignDay
8,23252508.356399987
1648,0.0
2,1, 1,21, 0,10,40.00,50.00,WinterDesignDay
8,23252508.356399987
1648,0.0
2,1, 1,21, 0,10,50.00,60.00,WinterDesignDay
8,23252508.356399987
1648,0.0
2,1, 1,21, 0,11, 0.00,10.00,WinterDesignDay
8,23252508.356399987
1648,0.0
2,1, 1,21, 0,11,10.00,20.00,WinterDesignDay
8,23252508.356399987
1648,0.0
2,1, 1,21, 0,11,20.00,30.00,WinterDesignDay
8,23252508.356399987
1648,0.0
2,1, 1,21, 0,11,30.00,40.00,WinterDesignDay
8,23252508.356399987
1648,0.0
2,1, 1,21, 0,11,40.00,50.00,WinterDesignDay
8,23252508.356399987
1648,0.0
2,1, 1,21, 0,11,50.00,60.00,WinterDesignDay
8,23252508.356399987
1648,0.0
2,1, 1,21, 0,12, 0.00,10.00,WinterDesignDay
8,23252508.356399987
1648,0.0
2,1, 1,21, 0,12,10.00,20.00,WinterDesignDay
8,23252508.356399987
1648,0.0
2,1, 1,21, 0,12,20.00,30.00,WinterDesignDay
8,23252508.356399987
1648,0.0
2,1, 1,21, 0,12,30.00,40.00,WinterDesignDay
8,23252508.356399987
1648,0.0
2,1, 1,21, 0,12,40.00,50.00,WinterDesignDay
8,23252508.356399987
1648,0.0
2,1, 1,21, 0,12,50.00,60.00,WinterDesignDay
8,23252508.356399987
1648,0.0
2,1, 1,21, 0,13, 0.00,10.00,WinterDesignDay
8,23252508.356399987
1648,0.0
2,1, 1,21, 0,13,10.00,20.00,WinterDesignDay
8,23252508.356399987
1648,0.0
2,1, 1,21, 0,13,20.00,30.00,WinterDesignDay
8,23252508.356399987
1648,0.0
2,1, 1,21, 0,13,30.00,40.00,WinterDesignDay
8,23252508.356399987
1648,0.0
2,1, 1,21, 0,13,40.00,50.00,WinterDesignDay
8,23252508.356399987
1648,0.0