Program Version,EnergyPlus, Version 23.2.0-7636e6b3e9, YMD=2025.01.12 20:49
1,5,Environment Title[],Latitude[deg],Longitude[deg],Time Zone[],Elevation[m]
2,8,Day of Simulation[],Month[],Day of Month[],DST Indicator[1=yes 0=no],Hour[],StartMinute[],EndMinute[],DayType
3,5,Cumulative Day of Simulation[],Month[],Day of Month[],DST Indicator[1=yes 0=no],DayType  ! When Daily Report Variables Requested
4,2,Cumulative Days of Simulation[],Month[]  ! When Monthly Report Variables Requested
5,1,Cumulative Days of Simulation[] ! When Run Period Report Variables Requested
6,1,Calendar Year of Simulation[] ! When Annual Report Variables Requested
8,1,Electricity:Facility [J] !TimeStep
End of Data Dictionary
1,RUN PERIOD 1,  45.47, -73.75,  -5.00,  36.00
2,1, 1, 1, 0, 1, 0.00,10.00,Sunday
8,37637400.41176769
2,1, 1, 1, 0, 1,10.00,20.00,Sunday
8,36544998.43929731
2,1, 1, 1, 0, 1,20.00,30.00,Sunday
8,34583755.67597667
2,1, 1, 1, 0, 1,30.00,40.00,Sunday
8,32685190.074807152
2,1, 1, 1, 0, 1,40.00,50.00,Sunday
8,29712994.836934835
2,1, 1, 1, 0, 1,50.00,60.00,Sunday
8,26524372.370598715
2,1, 1, 1, 0, 2, 0.00,10.00,Sunday
8,25954954.67436688
2,1, 1, 1, 0, 2,10.00,20.00,Sunday
8,25657093.268995263
2,1, 1, 1, 0, 2,20.00,30.00,Sunday
8,24968954.293260105
2,1, 1, 1, 0, 2,30.00,40.00,Sunday
8,24152099.387592137
2,1, 1, 1, 0, 2,40.00,50.00,Sunday
8,23585121.560226686
2,1, 1, 1, 0, 2,50.00,60.00,Sunday
8,23284626.575626895
2,1, 1, 1, 0, 3, 0.00,10.00,Sunday
8,23456752.7600099
2,1, 1, 1, 0, 3,10.00,20.00,Sunday
8,23326614.274859272
2,1, 1, 1, 0, 3,20.00,30.00,Sunday
8,23494970.51499363
2,1, 1, 1, 0, 3,30.00,40.00,Sunday
8,23857978.129443485
2,1, 1, 1, 0, 3,40.00,50.00,Sunday
8,24142632.79270648
2,1, 1, 1, 0, 3,50.00,60.00,Sunday
8,23921924.33843758
2,1, 1, 1, 0, 4, 0.00,10.00,Sunday
8,23491421.479293205
2,1, 1, 1, 0, 4,10.00,20.00,Sunday
8,23298566.461127546
2,1, 1, 1, 0, 4,20.00,30.00,Sunday
8,23156198.849489905
2,1, 1, 1, 0, 4,30.00,40.00,Sunday
8,22425574.66011328
2,1, 1, 1, 0, 4,40.00,50.00,Sunday
8,22083094.380193733
2,1, 1, 1, 0, 4,50.00,60.00,Sunday
8,21893678.554966085
2,1, 1, 1, 0, 5, 0.00,10.00,Sunday
8,22157330.112774447
2,1, 1, 1, 0, 5,10.00,20.00,Sunday
8,21792662.39495772
2,1, 1, 1, 0, 5,20.00,30.00,Sunday
8,21842018.01895723
2,1, 1, 1, 0, 5,30.00,40.00,Sunday
8,22024741.492709406
2,1, 1, 1, 0, 5,40.00,50.00,Sunday
8,22368197.7695538
2,1, 1, 1, 0, 5,50.00,60.00,Sunday
8,21996786.158916295
2,1, 1, 1, 0, 6, 0.00,10.00,Sunday
8,21259730.32576433
2,1, 1, 1, 0, 6,10.00,20.00,Sunday
8,20648629.69307106
2,1, 1, 1, 0, 6,20.00,30.00,Sunday
8,20224962.10383187
2,1, 1, 1, 0, 6,30.00,40.00,Sunday
8,19041043.1255038
2,1, 1, 1, 0, 6,40.00,50.00,Sunday
8,18283932.23403843
2,1, 1, 1, 0, 6,50.00,60.00,Sunday
8,17628644.03979331
2,1, 1, 1, 0, 7, 0.00,10.00,Sunday
8,18823534.594641373
2,1, 1, 1, 0, 7,10.00,20.00,Sunday
8,19273540.07500834
2,1, 1, 1, 0, 7,20.00,30.00,Sunday
8,20203237.39055552
2,1, 1, 1, 0, 7,30.00,40.00,Sunday
8,21270593.90682488
2,1, 1, 1, 0, 7,40.00,50.00,Sunday
8,22610260.51947855
2,1, 1, 1, 0, 7,50.00,60.00,Sunday
8,23193840.72377653
2,1, 1, 1, 0, 8, 0.00,10.00,Sunday
8,24442731.429957308
2,1, 1, 1, 0, 8,10.00,20.00,Sunday
8,25688894.182926323
2,1, 1, 1, 0, 8,20.00,30.00,Sunday
8,27203216.31068455
2,1, 1, 1, 0, 8,30.00,40.00,Sunday
8,27942161.31492116
2,1, 1, 1, 0, 8,40.00,50.00,Sunday
8,28658547.889385387
2,1, 1, 1, 0, 8,50.00,60.00,Sunday
8,29510688.859842204
2,1, 1, 1, 0, 9, 0.00,10.00,Sunday
8,28439436.184470564
2,1, 1, 1, 0, 9,10.00,20.00,Sunday
8,26561672.20974143
2,1, 1, 1, 0, 9,20.00,30.00,Sunday
8,25114517.231058825
2,1, 1, 1, 0, 9,30.00,40.00,Sunday
8,23799231.645504158
2,1, 1, 1, 0, 9,40.00,50.00,Sunday
8,22687053.965464965
2,1, 1, 1, 0, 9,50.00,60.00,Sunday
8,20694943.974078678
2,1, 1, 1, 0,10, 0.00,10.00,Sunday
8,63188665.16128941
2,1, 1, 1, 0,10,10.00,20.00,Sunday
8,32415172.213624887
2,1, 1, 1, 0,10,20.00,30.00,Sunday
8,37428544.96415485
2,1, 1, 1, 0,10,30.00,40.00,Sunday
8,27819536.576104786
2,1, 1, 1, 0,10,40.00,50.00,Sunday
8,27382796.02822193
2,1, 1, 1, 0,10,50.00,60.00,Sunday
8,27321930.445566706
2,1, 1, 1, 0,11, 0.00,10.00,Sunday
8,65586502.80542899
2,1, 1, 1, 0,11,10.00,20.00,Sunday
8,49059453.19238722
2,1, 1, 1, 0,11,20.00,30.00,Sunday
8,41002498.87126074
2,1, 1, 1, 0,11,30.00,40.00,Sunday
8,39913090.84596544
2,1, 1, 1, 0,11,40.00,50.00,Sunday
8,39375053.33210675
2,1, 1, 1, 0,11,50.00,60.00,Sunday
8,40279850.41804302
2,1, 1, 1, 0,12, 0.00,10.00,Sunday
8,73407452.3772839
2,1, 1, 1, 0,12,10.00,20.00,Sunday
8,73705731.22345822
2,1, 1, 1, 0,12,20.00,30.00,Sunday
8,74118886.13222802
2,1, 1, 1, 0,12,30.00,40.00,Sunday
8,74309625.9046021
2,1, 1, 1, 0,12,40.00,50.00,Sunday
8,76085333.30694212
2,1, 1, 1, 0,12,50.00,60.00,Sunday
8,77359155.87048185
2,1, 1, 1, 0,13, 0.00,10.00,Sunday
8,77025740.42730881
2,1, 1, 1, 0,13,10.00,20.00,Sunday
8,77239162.70011257
2,1, 1, 1, 0,13,20.00,30.00,Sunday
8,77985960.55755912
2,1, 1, 1, 0,13,30.00,40.00,Sunday
8,78611565.16605458
2,1, 1, 1, 0,13,40.00,50.00,Sunday
8,79225781.11358076
2,1, 1, 1, 0,13,50.00,60.00,Sunday
8,79725759.41439284
2,1, 1, 1, 0,14, 0.00,10.00,Sunday
8,80799935.22663
2,1, 1, 1, 0,14,10.00,20.00,Sunday
8,80345495.85594311
2,1, 1, 1, 0,14,20.00,30.00,Sunday
8,80452989.85541353
2,1, 1, 1, 0,14,30.00,40.00,Sunday
8,81126269.58356443
2,1, 1, 1, 0,14,40.00,50.00,Sunday
8,80591204.63045864
2,1, 1, 1, 0,14,50.00,60.00,Sunday
8,80769420.39806399
2,1, 1, 1, 0,15, 0.00,10.00,Sunday
8,80715687.56189539
2,1, 1, 1, 0,15,10.00,20.00,Sunday
8,79268436.28157812
2,1, 1, 1, 0,15,20.00,30.00,Sunday
8,78511857.4037288
2,1, 1, 1, 0,15,30.00,40.00,Sunday
8,78015711.39340194
2,1, 1, 1, 0,15,40.00,50.00,Sunday
8,76643006.45292012
2,1, 1, 1, 0,15,50.00,60.00,Sunday
8,75982049.52767967
2,1, 1, 1, 0,16, 0.00,10.00,Sunday
8,79094621.33606566
2,1, 1, 1, 0,16,10.00,20.00,Sunday
8,81516238.2055072
2,1, 1, 1, 0,16,20.00,30.00,Sunday
8,83915773.34475069
2,1, 1, 1, 0,16,30.00,40.00,Sunday
8,86201992.93938304
2,1, 1, 1, 0,16,40.00,50.00,Sunday
8,88651331.7441077
2,1, 1, 1, 0,16,50.00,60.00,Sunday
8,91126149.1267624
2,1, 1, 1, 0,17, 0.00,10.00,Sunday
8,90991944.53379913
2,1, 1, 1, 0,17,10.00,20.00,Sunday
8,90176838.38119899
2,1, 1, 1, 0,17,20.00,30.00,Sunday
8,89156373.69281848
2,1, 1, 1, 0,17,30.00,40.00,Sunday
8,88174334.44561642
2,1, 1, 1, 0,17,40.00,50.00,Sunday
8,86922307.5782095
2,1, 1, 1, 0,17,50.00,60.00,Sunday
8,85588681.93344161
2,1, 1, 1, 0,18, 0.00,10.00,Sunday
8,87262501.15352212
2,1, 1, 1, 0,18,10.00,20.00,Sunday
8,88516304.1485763
2,1, 1, 1, 0,18,20.00,30.00,Sunday
8,89160364.72414559
2,1, 1, 1, 0,18,30.00,40.00,Sunday
8,90456738.6474732
2,1, 1, 1, 0,18,40.00,50.00,Sunday
8,91766782.34426199
2,1, 1, 1, 0,18,50.00,60.00,Sunday
8,92816471.65001059
2,1, 1, 1, 0,19, 0.00,10.00,Sunday
8,88372909.19882041
2,1, 1, 1, 0,19,10.00,20.00,Sunday
8,87811950.84643507
2,1, 1, 1, 0,19,20.00,30.00,Sunday
8,87096589.62069742
2,1, 1, 1, 0,19,30.00,40.00,Sunday
8,85355646.57416958
2,1, 1, 1, 0,19,40.00,50.00,Sunday
8,84845421.01893495
2,1, 1, 1, 0,19,50.00,60.00,Sunday
8,83618951.03867087
2,1, 1, 1, 0,20, 0.00,10.00,Sunday
8,6026445.991210287
2,1, 1, 1, 0,20,10.00,20.00,Sunday
8,6256665.525660684
2,1, 1, 1, 0,20,20.00,30.00,Sunday
8,6661542.809853115
2,1, 1, 1, 0,20,30.00,40.00,Sunday
8,8385961.994451467
2,1, 1, 1, 0,20,40.00,50.00,Sunday
8,10750688.71311359
2,1, 1, 1, 0,20,50.00,60.00,Sunday
8,11065143.68967705
2,1, 1, 1, 0,21, 0.00,10.00,Sunday
8,15503200.85383351
2,1, 1, 1, 0,21,10.00,20.00,Sunday
8,26469273.557249356
2,1, 1, 1, 0,21,20.00,30.00,Sunday
8,28131930.28081049
2,1, 1, 1, 0,21,30.00,40.00,Sunday
8,28085307.547639627
2,1, 1, 1, 0,21,40.00,50.00,Sunday
8,29852934.66511345
2,1, 1, 1, 0,21,50.00,60.00,Sunday
8,31586118.51393942
2,1, 1, 1, 0,22, 0.00,10.00,Sunday
8,35198557.322266884
2,1, 1, 1, 0,22,10.00,20.00,Sunday
8,37629868.63520318
2,1, 1, 1, 0,22,20.00,30.00,Sunday
8,39604516.988308065
2,1, 1, 1, 0,22,30.00,40.00,Sunday
8,42146520.70204183
2,1, 1, 1, 0,22,40.00,50.00,Sunday
8,43539072.62035724
2,1, 1, 1, 0,22,50.00,60.00,Sunday
8,45485119.06370207
2,1, 1, 1, 0,23, 0.00,10.00,Sunday
8,46561671.2956328
2,1, 1, 1, 0,23,10.00,20.00,Sunday
8,46830542.37466365
2,1, 1, 1, 0,23,20.00,30.00,Sunday
8,45671861.77365423
2,1, 1, 1, 0,23,30.00,40.00,Sunday
8,45005861.6603245
2,1, 1, 1, 0,23,40.00,50.00,Sunday
8,44262200.02892404
2,1, 1, 1, 0,23,50.00,60.00,Sunday
8,44016013.32336606
2,1, 1, 1, 0,24, 0.00,10.00,Sunday
8,44162030.26290203
2,1, 1, 1, 0,24,10.00,20.00,Sunday
8,44043905.77496158
2,1, 1, 1, 0,24,20.00,30.00,Sunday
8,43767373.67382832
2,1, 1, 1, 0,24,30.00,40.00,Sunday
8,44021078.409263834
2,1, 1, 1, 0,24,40.00,50.00,Sunday
8,43108587.358690225
2,1, 1, 1, 0,24,50.00,60.00,Sunday
8,42730843.30893577
2,2, 1, 2, 0, 1, 0.00,10.00,Monday
8,44689025.189440146
2,2, 1, 2, 0, 1,10.00,20.00,Monday
8,46761922.51817272
2,2, 1, 2, 0, 1,20.00,30.00,Monday
8,47751443.878775135
2,2, 1, 2, 0, 1,30.00,40.00,Monday
8,49192199.650187604
2,2, 1, 2, 0, 1,40.00,50.00,Monday
8,50667333.63534794
2,2, 1, 2, 0, 1,50.00,60.00,Monday
8,52566120.49398764
2,2, 1, 2, 0, 2, 0.00,10.00,Monday
8,49409264.14188328
2,2, 1, 2, 0, 2,10.00,20.00,Monday
8,46167939.29193168
2,2, 1, 2, 0, 2,20.00,30.00,Monday
8,43011865.303032964
2,2, 1, 2, 0, 2,30.00,40.00,Monday
8,40162887.01094825
2,2, 1, 2, 0, 2,40.00,50.00,Monday
8,36837780.9105413
2,2, 1, 2, 0, 2,50.00,60.00,Monday
8,33371864.482552744
2,2, 1, 2, 0, 3, 0.00,10.00,Monday
8,35100156.1577195
2,2, 1, 2, 0, 3,10.00,20.00,Monday
8,36947832.648015335
2,2, 1, 2, 0, 3,20.00,30.00,Monday
8,38512935.487671345
2,2, 1, 2, 0, 3,30.00,40.00,Monday
8,39771533.127479024
2,2, 1, 2, 0, 3,40.00,50.00,Monday
8,41313558.72470885
2,2, 1, 2, 0, 3,50.00,60.00,Monday
8,43078746.367680475
2,2, 1, 2, 0, 4, 0.00,10.00,Monday
8,42107155.50550276
2,2, 1, 2, 0, 4,10.00,20.00,Monday
8,40601981.74759779
2,2, 1, 2, 0, 4,20.00,30.00,Monday
8,39413338.48273773
2,2, 1, 2, 0, 4,30.00,40.00,Monday
8,38414980.68668495
2,2, 1, 2, 0, 4,40.00,50.00,Monday
8,37390403.89431233
2,2, 1, 2, 0, 4,50.00,60.00,Monday
8,35829374.98309442
2,2, 1, 2, 0, 5, 0.00,10.00,Monday
8,35167447.99933821
2,2, 1, 2, 0, 5,10.00,20.00,Monday
8,34611448.73591168
2,2, 1, 2, 0, 5,20.00,30.00,Monday
8,34086508.43126373
2,2, 1, 2, 0, 5,30.00,40.00,Monday
8,32952278.434544433
2,2, 1, 2, 0, 5,40.00,50.00,Monday
8,32196847.420464106
2,2, 1, 2, 0, 5,50.00,60.00,Monday
8,31587995.636804197
2,2, 1, 2, 0, 6, 0.00,10.00,Monday
8,32525469.362057768
2,2, 1, 2, 0, 6,10.00,20.00,Monday
8,32715201.01607816
2,2, 1, 2, 0, 6,20.00,30.00,Monday
8,33286984.7071328
2,2, 1, 2, 0, 6,30.00,40.00,Monday
8,33996226.52173851
2,2, 1, 2, 0, 6,40.00,50.00,Monday
8,34828836.12341456
2,2, 1, 2, 0, 6,50.00,60.00,Monday
8,34975564.83648983
2,2, 1, 2, 0, 7, 0.00,10.00,Monday
8,34405094.21808068
2,2, 1, 2, 0, 7,10.00,20.00,Monday
8,33972812.77368199
2,2, 1, 2, 0, 7,20.00,30.00,Monday
8,33694330.65437531
2,2, 1, 2, 0, 7,30.00,40.00,Monday
8,32710405.302327324
2,2, 1, 2, 0, 7,40.00,50.00,Monday
8,32148119.170495782
2,2, 1, 2, 0, 7,50.00,60.00,Monday
8,31715251.85490252
2,2, 1, 2, 0, 8, 0.00,10.00,Monday
8,87952208.50147888
2,2, 1, 2, 0, 8,10.00,20.00,Monday
8,24356436.426923033
2,2, 1, 2, 0, 8,20.00,30.00,Monday
8,57754015.733977936
2,2, 1, 2, 0, 8,30.00,40.00,Monday
8,52143572.05918116
2,2, 1, 2, 0, 8,40.00,50.00,Monday
8,50440275.024925046
2,2, 1, 2, 0, 8,50.00,60.00,Monday
8,49004739.687602356
2,2, 1, 2, 0, 9, 0.00,10.00,Monday
8,98636654.24635622
2,2, 1, 2, 0, 9,10.00,20.00,Monday
8,82879445.51500149
2,2, 1, 2, 0, 9,20.00,30.00,Monday
8,70672004.83021572
2,2, 1, 2, 0, 9,30.00,40.00,Monday
8,70945985.14687127
2,2, 1, 2, 0, 9,40.00,50.00,Monday
8,70584625.52806742
2,2, 1, 2, 0, 9,50.00,60.00,Monday
8,71565126.43141896
2,2, 1, 2, 0,10, 0.00,10.00,Monday
8,135973412.8029148
2,2, 1, 2, 0,10,10.00,20.00,Monday
8,134962042.84754357
2,2, 1, 2, 0,10,20.00,30.00,Monday
8,135197189.62832102
2,2, 1, 2, 0,10,30.00,40.00,Monday
8,136240678.03650716
2,2, 1, 2, 0,10,40.00,50.00,Monday
8,137423549.32788348
2,2, 1, 2, 0,10,50.00,60.00,Monday
8,138788539.30418175
2,2, 1, 2, 0,11, 0.00,10.00,Monday
8,132319259.49478169
2,2, 1, 2, 0,11,10.00,20.00,Monday
8,130117182.13489933
2,2, 1, 2, 0,11,20.00,30.00,Monday
8,128489270.82752553
2,2, 1, 2, 0,11,30.00,40.00,Monday
8,127012284.78932622
2,2, 1, 2, 0,11,40.00,50.00,Monday
8,125612095.97168528
2,2, 1, 2, 0,11,50.00,60.00,Monday
8,124400289.29936078
2,2, 1, 2, 0,12, 0.00,10.00,Monday
8,122901393.50489955
2,2, 1, 2, 0,12,10.00,20.00,Monday
8,123518960.62881829
2,2, 1, 2, 0,12,20.00,30.00,Monday
8,124203697.42865813
2,2, 1, 2, 0,12,30.00,40.00,Monday
8,124844156.352664
2,2, 1, 2, 0,12,40.00,50.00,Monday
8,125502993.84851988
2,2, 1, 2, 0,12,50.00,60.00,Monday
8,126216804.71195695
2,2, 1, 2, 0,13, 0.00,10.00,Monday
8,125495300.33837777
2,2, 1, 2, 0,13,10.00,20.00,Monday
8,124888431.74175145
2,2, 1, 2, 0,13,20.00,30.00,Monday
8,124585982.58253033
2,2, 1, 2, 0,13,30.00,40.00,Monday
8,124641599.30283196
2,2, 1, 2, 0,13,40.00,50.00,Monday
8,124749402.68787803
2,2, 1, 2, 0,13,50.00,60.00,Monday
8,124998084.33264858
2,2, 1, 2, 0,14, 0.00,10.00,Monday
8,127136093.76024924
2,2, 1, 2, 0,14,10.00,20.00,Monday
8,128710258.60963105
2,2, 1, 2, 0,14,20.00,30.00,Monday
8,130356886.64359206
2,2, 1, 2, 0,14,30.00,40.00,Monday
8,131829536.08334708
2,2, 1, 2, 0,14,40.00,50.00,Monday
8,133265148.59555124
2,2, 1, 2, 0,14,50.00,60.00,Monday
8,134676431.13537586
2,2, 1, 2, 0,15, 0.00,10.00,Monday
8,135351506.8496448
2,2, 1, 2, 0,15,10.00,20.00,Monday
8,134901958.3407902
2,2, 1, 2, 0,15,20.00,30.00,Monday
8,134375759.1794594
2,2, 1, 2, 0,15,30.00,40.00,Monday
8,133814046.73030628
2,2, 1, 2, 0,15,40.00,50.00,Monday
8,133212070.894981
2,2, 1, 2, 0,15,50.00,60.00,Monday
8,132582209.56590356
2,2, 1, 2, 0,16, 0.00,10.00,Monday
8,133981676.95725691
2,2, 1, 2, 0,16,10.00,20.00,Monday
8,134931624.38919678
2,2, 1, 2, 0,16,20.00,30.00,Monday
8,135663907.67973936
2,2, 1, 2, 0,16,30.00,40.00,Monday
8,136308169.97494125
2,2, 1, 2, 0,16,40.00,50.00,Monday
8,136885594.4367529
2,2, 1, 2, 0,16,50.00,60.00,Monday
8,137426020.24461442
2,2, 1, 2, 0,17, 0.00,10.00,Monday
8,137229011.11867544
2,2, 1, 2, 0,17,10.00,20.00,Monday
8,136803003.18529585
2,2, 1, 2, 0,17,20.00,30.00,Monday
8,136145013.18432665
2,2, 1, 2, 0,17,30.00,40.00,Monday
8,135441543.84673843
2,2, 1, 2, 0,17,40.00,50.00,Monday
8,134705221.85714972
2,2, 1, 2, 0,17,50.00,60.00,Monday
8,133380402.83229977
2,2, 1, 2, 0,18, 0.00,10.00,Monday
8,132560858.08001079
2,2, 1, 2, 0,18,10.00,20.00,Monday
8,131593806.4147491
2,2, 1, 2, 0,18,20.00,30.00,Monday
8,130445633.124607
2,2, 1, 2, 0,18,30.00,40.00,Monday
8,129263774.67184412
2,2, 1, 2, 0,18,40.00,50.00,Monday
8,128071729.90654874
2,2, 1, 2, 0,18,50.00,60.00,Monday
8,126873030.26830727
2,2, 1, 2, 0,19, 0.00,10.00,Monday
8,125954731.80567625
2,2, 1, 2, 0,19,10.00,20.00,Monday
8,125200403.21386656
2,2, 1, 2, 0,19,20.00,30.00,Monday
8,123994283.2185749
2,2, 1, 2, 0,19,30.00,40.00,Monday
8,123437871.96824612
2,2, 1, 2, 0,19,40.00,50.00,Monday
8,122815758.38295272
2,2, 1, 2, 0,19,50.00,60.00,Monday
8,121981935.26017933
2,2, 1, 2, 0,20, 0.00,10.00,Monday
8,102798169.76805197
2,2, 1, 2, 0,20,10.00,20.00,Monday
8,104264415.44744746
2,2, 1, 2, 0,20,20.00,30.00,Monday
8,107849384.14142267
2,2, 1, 2, 0,20,30.00,40.00,Monday
8,110355112.85231777
2,2, 1, 2, 0,20,40.00,50.00,Monday
8,113931824.76029941
2,2, 1, 2, 0,20,50.00,60.00,Monday
8,114898666.8477652
2,2, 1, 2, 0,21, 0.00,10.00,Monday
8,112551910.19300161
2,2, 1, 2, 0,21,10.00,20.00,Monday
8,111756353.18131639
2,2, 1, 2, 0,21,20.00,30.00,Monday
8,109617478.52953067
2,2, 1, 2, 0,21,30.00,40.00,Monday
8,107602891.57352677
2,2, 1, 2, 0,21,40.00,50.00,Monday
8,106019522.34964938
2,2, 1, 2, 0,21,50.00,60.00,Monday
8,103424205.387182
2,2, 1, 2, 0,22, 0.00,10.00,Monday
8,7609702.225467823
2,2, 1, 2, 0,22,10.00,20.00,Monday
8,8452986.283010669
2,2, 1, 2, 0,22,20.00,30.00,Monday
8,9219507.228943804
2,2, 1, 2, 0,22,30.00,40.00,Monday
8,9492426.967744835
2,2, 1, 2, 0,22,40.00,50.00,Monday
8,10603770.821795475
2,2, 1, 2, 0,22,50.00,60.00,Monday
8,13349982.648682607
2,2, 1, 2, 0,23, 0.00,10.00,Monday
8,24620066.46203591
2,2, 1, 2, 0,23,10.00,20.00,Monday
8,23428730.553331252
2,2, 1, 2, 0,23,20.00,30.00,Monday
8,27334333.587435115
2,2, 1, 2, 0,23,30.00,40.00,Monday
8,29237646.093819052
2,2, 1, 2, 0,23,40.00,50.00,Monday
8,31393854.154385038
2,2, 1, 2, 0,23,50.00,60.00,Monday
8,33494334.421455167
2,2, 1, 2, 0,24, 0.00,10.00,Monday
8,36206708.16618223
2,2, 1, 2, 0,24,10.00,20.00,Monday
8,35977029.309496276
2,2, 1, 2, 0,24,20.00,30.00,Monday
8,35828023.028873265
2,2, 1, 2, 0,24,30.00,40.00,Monday
8,35620596.88246357
2,2, 1, 2, 0,24,40.00,50.00,Monday
8,35895429.98019196
2,2, 1, 2, 0,24,50.00,60.00,Monday
8,35005916.67700864
2,3, 1, 3, 0, 1, 0.00,10.00,Tuesday
8,36675382.547752574
2,3, 1, 3, 0, 1,10.00,20.00,Tuesday
8,37369289.490520895
2,3, 1, 3, 0, 1,20.00,30.00,Tuesday
8,38439308.73896853
2,3, 1, 3, 0, 1,30.00,40.00,Tuesday
8,38371920.837344386
2,3, 1, 3, 0, 1,40.00,50.00,Tuesday
8,38829430.008188136
2,3, 1, 3, 0, 1,50.00,60.00,Tuesday
8,39264365.73696182
2,3, 1, 3, 0, 2, 0.00,10.00,Tuesday
8,43774732.05605108
2,3, 1, 3, 0, 2,10.00,20.00,Tuesday
8,46593659.75158545
2,3, 1, 3, 0, 2,20.00,30.00,Tuesday
8,49770815.306883864
2,3, 1, 3, 0, 2,30.00,40.00,Tuesday
8,52820378.99325593
2,3, 1, 3, 0, 2,40.00,50.00,Tuesday
8,56298168.53715771
2,3, 1, 3, 0, 2,50.00,60.00,Tuesday
8,58542710.56894412
2,3, 1, 3, 0, 3, 0.00,10.00,Tuesday
8,58277216.963454716
2,3, 1, 3, 0, 3,10.00,20.00,Tuesday
8,57894412.32768859
2,3, 1, 3, 0, 3,20.00,30.00,Tuesday
8,58049687.91908163
2,3, 1, 3, 0, 3,30.00,40.00,Tuesday
8,57092979.13576394
2,3, 1, 3, 0, 3,40.00,50.00,Tuesday
8,56690491.27706214
2,3, 1, 3, 0, 3,50.00,60.00,Tuesday
8,56287557.157268256
2,3, 1, 3, 0, 4, 0.00,10.00,Tuesday
8,56626982.3523703
2,3, 1, 3, 0, 4,10.00,20.00,Tuesday
8,55818662.070777334
2,3, 1, 3, 0, 4,20.00,30.00,Tuesday
8,55559088.07510419
2,3, 1, 3, 0, 4,30.00,40.00,Tuesday
8,55298169.04348204
2,3, 1, 3, 0, 4,40.00,50.00,Tuesday
8,55591373.143394195
2,3, 1, 3, 0, 4,50.00,60.00,Tuesday
8,54771412.32704305
2,3, 1, 3, 0, 5, 0.00,10.00,Tuesday
8,52302222.764295086
2,3, 1, 3, 0, 5,10.00,20.00,Tuesday
8,49867075.11755086
2,3, 1, 3, 0, 5,20.00,30.00,Tuesday
8,48275018.8845178
2,3, 1, 3, 0, 5,30.00,40.00,Tuesday
8,45306529.14234445
2,3, 1, 3, 0, 5,40.00,50.00,Tuesday
8,42951082.036974974
2,3, 1, 3, 0, 5,50.00,60.00,Tuesday
8,40617154.70846799
2,3, 1, 3, 0, 6, 0.00,10.00,Tuesday
8,41651966.540809736
2,3, 1, 3, 0, 6,10.00,20.00,Tuesday
8,41618461.467769444
2,3, 1, 3, 0, 6,20.00,30.00,Tuesday
8,42147424.5726067
2,3, 1, 3, 0, 6,30.00,40.00,Tuesday
8,42676028.1348136
2,3, 1, 3, 0, 6,40.00,50.00,Tuesday
8,43760319.373226434
2,3, 1, 3, 0, 6,50.00,60.00,Tuesday
8,43732060.78975902
2,3, 1, 3, 0, 7, 0.00,10.00,Tuesday
8,44004338.550578035
2,3, 1, 3, 0, 7,10.00,20.00,Tuesday
8,44283965.236069046
2,3, 1, 3, 0, 7,20.00,30.00,Tuesday
8,45121682.60886063
2,3, 1, 3, 0, 7,30.00,40.00,Tuesday
8,44531787.78648311
2,3, 1, 3, 0, 7,40.00,50.00,Tuesday
8,44900910.4627236
2,3, 1, 3, 0, 7,50.00,60.00,Tuesday
8,45207071.32013437
2,3, 1, 3, 0, 8, 0.00,10.00,Tuesday
8,98153774.11136256
2,3, 1, 3, 0, 8,10.00,20.00,Tuesday
8,65144389.44663071
2,3, 1, 3, 0, 8,20.00,30.00,Tuesday
8,66726439.67623422
2,3, 1, 3, 0, 8,30.00,40.00,Tuesday
8,60242981.683717154
2,3, 1, 3, 0, 8,40.00,50.00,Tuesday
8,57509383.877608076
2,3, 1, 3, 0, 8,50.00,60.00,Tuesday
8,54944222.47106206
2,3, 1, 3, 0, 9, 0.00,10.00,Tuesday
8,102559121.93514761
2,3, 1, 3, 0, 9,10.00,20.00,Tuesday
8,86953505.26976293
2,3, 1, 3, 0, 9,20.00,30.00,Tuesday
8,72440626.53627104
2,3, 1, 3, 0, 9,30.00,40.00,Tuesday
8,71061087.77424599
2,3, 1, 3, 0, 9,40.00,50.00,Tuesday
8,69274107.33331072
2,3, 1, 3, 0, 9,50.00,60.00,Tuesday
8,68450719.32545017
2,3, 1, 3, 0,10, 0.00,10.00,Tuesday
8,114000413.04910852
2,3, 1, 3, 0,10,10.00,20.00,Tuesday
8,111876211.93239528
2,3, 1, 3, 0,10,20.00,30.00,Tuesday
8,111451624.02854991
2,3, 1, 3, 0,10,30.00,40.00,Tuesday
8,110877393.12261386
2,3, 1, 3, 0,10,40.00,50.00,Tuesday
8,110181586.9547401
2,3, 1, 3, 0,10,50.00,60.00,Tuesday
8,109606689.16312724
2,3, 1, 3, 0,11, 0.00,10.00,Tuesday
8,105575805.50425266
2,3, 1, 3, 0,11,10.00,20.00,Tuesday
8,104305181.94267245
2,3, 1, 3, 0,11,20.00,30.00,Tuesday
8,103429722.39674172
2,3, 1, 3, 0,11,30.00,40.00,Tuesday
8,102612709.35299523
2,3, 1, 3, 0,11,40.00,50.00,Tuesday
8,101855870.8295145
2,3, 1, 3, 0,11,50.00,60.00,Tuesday
8,101220005.02925035
2,3, 1, 3, 0,12, 0.00,10.00,Tuesday
8,99579376.29205203
2,3, 1, 3, 0,12,10.00,20.00,Tuesday
8,98997508.0013159
2,3, 1, 3, 0,12,20.00,30.00,Tuesday
8,98574910.11199845
2,3, 1, 3, 0,12,30.00,40.00,Tuesday
8,96943079.11545421
2,3, 1, 3, 0,12,40.00,50.00,Tuesday
8,96256122.31233104
2,3, 1, 3, 0,12,50.00,60.00,Tuesday
8,95878188.41141775
2,3, 1, 3, 0,13, 0.00,10.00,Tuesday
8,95145084.04288854
2,3, 1, 3, 0,13,10.00,20.00,Tuesday
8,95343971.96514931
2,3, 1, 3, 0,13,20.00,30.00,Tuesday
8,96589171.39537646
2,3, 1, 3, 0,13,30.00,40.00,Tuesday
8,97076187.26682281
2,3, 1, 3, 0,13,40.00,50.00,Tuesday
8,97512976.02070397
2,3, 1, 3, 0,13,50.00,60.00,Tuesday
8,97972629.91444068
2,3, 1, 3, 0,14, 0.00,10.00,Tuesday
8,100872347.23036377
2,3, 1, 3, 0,14,10.00,20.00,Tuesday
8,103959869.4274902
2,3, 1, 3, 0,14,20.00,30.00,Tuesday
8,107132136.92546783
2,3, 1, 3, 0,14,30.00,40.00,Tuesday
8,109331288.67079712
2,3, 1, 3, 0,14,40.00,50.00,Tuesday
8,112427674.08487765
2,3, 1, 3, 0,14,50.00,60.00,Tuesday
8,115545319.28731872
2,3, 1, 3, 0,15, 0.00,10.00,Tuesday
8,112683270.13151324
2,3, 1, 3, 0,15,10.00,20.00,Tuesday
8,110066791.3562009
2,3, 1, 3, 0,15,20.00,30.00,Tuesday
8,107515633.17907791
2,3, 1, 3, 0,15,30.00,40.00,Tuesday
8,105138911.47133824
2,3, 1, 3, 0,15,40.00,50.00,Tuesday
8,102872986.90342648
2,3, 1, 3, 0,15,50.00,60.00,Tuesday
8,100580543.20561886
2,3, 1, 3, 0,16, 0.00,10.00,Tuesday
8,101800628.80599572
2,3, 1, 3, 0,16,10.00,20.00,Tuesday
8,103070385.07023151
2,3, 1, 3, 0,16,20.00,30.00,Tuesday
8,104383468.30221318
2,3, 1, 3, 0,16,30.00,40.00,Tuesday
8,105541248.17312053
2,3, 1, 3, 0,16,40.00,50.00,Tuesday
8,106638726.15927441
2,3, 1, 3, 0,16,50.00,60.00,Tuesday
8,107704641.81355804
2,3, 1, 3, 0,17, 0.00,10.00,Tuesday
8,108497961.51172963
2,3, 1, 3, 0,17,10.00,20.00,Tuesday
8,109076419.18224883
2,3, 1, 3, 0,17,20.00,30.00,Tuesday
8,109533430.12618907
2,3, 1, 3, 0,17,30.00,40.00,Tuesday
8,109968003.85246477
2,3, 1, 3, 0,17,40.00,50.00,Tuesday
8,110379955.18027785
2,3, 1, 3, 0,17,50.00,60.00,Tuesday
8,110203791.62572156
2,3, 1, 3, 0,18, 0.00,10.00,Tuesday
8,111484760.08446914
2,3, 1, 3, 0,18,10.00,20.00,Tuesday
8,112793521.5799719
2,3, 1, 3, 0,18,20.00,30.00,Tuesday
8,113907524.77785128
2,3, 1, 3, 0,18,30.00,40.00,Tuesday
8,115016478.70041879
2,3, 1, 3, 0,18,40.00,50.00,Tuesday
8,116121398.36937873
2,3, 1, 3, 0,18,50.00,60.00,Tuesday
8,117223368.07949673
2,3, 1, 3, 0,19, 0.00,10.00,Tuesday
8,117306730.01723082
2,3, 1, 3, 0,19,10.00,20.00,Tuesday
8,117478681.7484082
2,3, 1, 3, 0,19,20.00,30.00,Tuesday
8,117331246.64662836
2,3, 1, 3, 0,19,30.00,40.00,Tuesday
8,117833062.89897226
2,3, 1, 3, 0,19,40.00,50.00,Tuesday
8,118106770.10834748
2,3, 1, 3, 0,19,50.00,60.00,Tuesday
8,118235035.86865574
2,3, 1, 3, 0,20, 0.00,10.00,Tuesday
8,97520985.18619668
2,3, 1, 3, 0,20,10.00,20.00,Tuesday
8,105745964.25481904
2,3, 1, 3, 0,20,20.00,30.00,Tuesday
8,113190273.59753095
2,3, 1, 3, 0,20,30.00,40.00,Tuesday
8,108077517.5646327
2,3, 1, 3, 0,20,40.00,50.00,Tuesday
8,112123579.05623429
2,3, 1, 3, 0,20,50.00,60.00,Tuesday
8,113717070.06256278
2,3, 1, 3, 0,21, 0.00,10.00,Tuesday
8,112303599.92176439
2,3, 1, 3, 0,21,10.00,20.00,Tuesday
8,112389035.40084136
2,3, 1, 3, 0,21,20.00,30.00,Tuesday
8,111239944.54483265
2,3, 1, 3, 0,21,30.00,40.00,Tuesday
8,110394957.22253437
2,3, 1, 3, 0,21,40.00,50.00,Tuesday
8,109792414.62423173
2,3, 1, 3, 0,21,50.00,60.00,Tuesday
8,108170070.66167937
2,3, 1, 3, 0,22, 0.00,10.00,Tuesday
8,12080444.093728611
2,3, 1, 3, 0,22,10.00,20.00,Tuesday
8,16555348.702204853
2,3, 1, 3, 0,22,20.00,30.00,Tuesday
8,24523795.834542766
2,3, 1, 3, 0,22,30.00,40.00,Tuesday
8,39575011.46503276
2,3, 1, 3, 0,22,40.00,50.00,Tuesday
8,51076485.06011743
2,3, 1, 3, 0,22,50.00,60.00,Tuesday
8,53760933.764335014
2,3, 1, 3, 0,23, 0.00,10.00,Tuesday
8,56951427.635073245
2,3, 1, 3, 0,23,10.00,20.00,Tuesday
8,58350460.382131204
2,3, 1, 3, 0,23,20.00,30.00,Tuesday
8,59069980.52295497
2,3, 1, 3, 0,23,30.00,40.00,Tuesday
8,58461105.70418993
2,3, 1, 3, 0,23,40.00,50.00,Tuesday
8,58244815.291686624
2,3, 1, 3, 0,23,50.00,60.00,Tuesday
8,57871892.76026574
2,3, 1, 3, 0,24, 0.00,10.00,Tuesday
8,63480326.75526448
2,3, 1, 3, 0,24,10.00,20.00,Tuesday
8,66018481.997920714
2,3, 1, 3, 0,24,20.00,30.00,Tuesday
8,68614009.4017979
2,3, 1, 3, 0,24,30.00,40.00,Tuesday
8,71196198.20435594
2,3, 1, 3, 0,24,40.00,50.00,Tuesday
8,74298102.96177745
2,3, 1, 3, 0,24,50.00,60.00,Tuesday
8,76276601.9638424
2,4, 1, 4, 0, 1, 0.00,10.00,Wednesday
8,77786972.87926519
2,4, 1, 4, 0, 1,10.00,20.00,Wednesday
8,77944326.47238229
2,4, 1, 4, 0, 1,20.00,30.00,Wednesday
8,78375061.95976636
2,4, 1, 4, 0, 1,30.00,40.00,Wednesday
8,77631809.61844881
2,4, 1, 4, 0, 1,40.00,50.00,Wednesday
8,77373339.59148842
2,4, 1, 4, 0, 1,50.00,60.00,Wednesday
8,77055803.50410289
2,4, 1, 4, 0, 2, 0.00,10.00,Wednesday
8,77835931.65203536
2,4, 1, 4, 0, 2,10.00,20.00,Wednesday
8,76759890.72806963
2,4, 1, 4, 0, 2,20.00,30.00,Wednesday
8,76090827.91083232
2,4, 1, 4, 0, 2,30.00,40.00,Wednesday
8,75381964.95652737
2,4, 1, 4, 0, 2,40.00,50.00,Wednesday
8,75185514.2562365
2,4, 1, 4, 0, 2,50.00,60.00,Wednesday
8,73894597.64615278
2,4, 1, 4, 0, 3, 0.00,10.00,Wednesday
8,71476909.51085751
2,4, 1, 4, 0, 3,10.00,20.00,Wednesday
8,68648830.99242963
2,4, 1, 4, 0, 3,20.00,30.00,Wednesday
8,66284547.42246609
2,4, 1, 4, 0, 3,30.00,40.00,Wednesday
8,62776436.76415299
2,4, 1, 4, 0, 3,40.00,50.00,Wednesday
8,59789003.01180599
2,4, 1, 4, 0, 3,50.00,60.00,Wednesday
8,56770818.017150626
2,4, 1, 4, 0, 4, 0.00,10.00,Wednesday
8,59291052.955278054
2,4, 1, 4, 0, 4,10.00,20.00,Wednesday
8,60485100.569133066
2,4, 1, 4, 0, 4,20.00,30.00,Wednesday
8,62196262.87226425
2,4, 1, 4, 0, 4,30.00,40.00,Wednesday
8,63901045.702718794
2,4, 1, 4, 0, 4,40.00,50.00,Wednesday
8,66152857.158514515
2,4, 1, 4, 0, 4,50.00,60.00,Wednesday
8,67293302.25575833
2,4, 1, 4, 0, 5, 0.00,10.00,Wednesday
8,66063925.82501837
2,4, 1, 4, 0, 5,10.00,20.00,Wednesday
8,64739227.02015264
2,4, 1, 4, 0, 5,20.00,30.00,Wednesday
8,63950823.01968901
2,4, 1, 4, 0, 5,30.00,40.00,Wednesday
8,62054073.65530181
2,4, 1, 4, 0, 5,40.00,50.00,Wednesday
8,60708021.51276511
2,4, 1, 4, 0, 5,50.00,60.00,Wednesday
8,59399121.11532559
2,4, 1, 4, 0, 6, 0.00,10.00,Wednesday
8,58767629.692648076
2,4, 1, 4, 0, 6,10.00,20.00,Wednesday
8,57081160.44074982
2,4, 1, 4, 0, 6,20.00,30.00,Wednesday
8,55890738.17797916
2,4, 1, 4, 0, 6,30.00,40.00,Wednesday
8,54764947.44291086
2,4, 1, 4, 0, 6,40.00,50.00,Wednesday
8,53953026.08338835
2,4, 1, 4, 0, 6,50.00,60.00,Wednesday
8,52248424.81725339
2,4, 1, 4, 0, 7, 0.00,10.00,Wednesday
8,51445551.804066256
2,4, 1, 4, 0, 7,10.00,20.00,Wednesday
8,50657028.56679701
2,4, 1, 4, 0, 7,20.00,30.00,Wednesday
8,50099173.497539036
2,4, 1, 4, 0, 7,30.00,40.00,Wednesday
8,48734055.97668146
2,4, 1, 4, 0, 7,40.00,50.00,Wednesday
8,47818178.3550517
2,4, 1, 4, 0, 7,50.00,60.00,Wednesday
8,47020663.676382065
2,4, 1, 4, 0, 8, 0.00,10.00,Wednesday
8,105588273.58567372
2,4, 1, 4, 0, 8,10.00,20.00,Wednesday
8,75635379.32624647
2,4, 1, 4, 0, 8,20.00,30.00,Wednesday
8,80227678.60423423
2,4, 1, 4, 0, 8,30.00,40.00,Wednesday
8,77676550.0474077
2,4, 1, 4, 0, 8,40.00,50.00,Wednesday
8,77689304.10079367
2,4, 1, 4, 0, 8,50.00,60.00,Wednesday
8,78012719.94934782
2,4, 1, 4, 0, 9, 0.00,10.00,Wednesday
8,118650395.35033812
2,4, 1, 4, 0, 9,10.00,20.00,Wednesday
8,113975097.65261228
2,4, 1, 4, 0, 9,20.00,30.00,Wednesday
8,83123153.44409744
2,4, 1, 4, 0, 9,30.00,40.00,Wednesday
8,92794741.6805506
2,4, 1, 4, 0, 9,40.00,50.00,Wednesday
8,87813887.11013007
2,4, 1, 4, 0, 9,50.00,60.00,Wednesday
8,86552305.66608658
2,4, 1, 4, 0,10, 0.00,10.00,Wednesday
8,150246049.0790243
2,4, 1, 4, 0,10,10.00,20.00,Wednesday
8,147274068.63456985
2,4, 1, 4, 0,10,20.00,30.00,Wednesday
8,145325348.7018758
2,4, 1, 4, 0,10,30.00,40.00,Wednesday
8,143915607.04617873
2,4, 1, 4, 0,10,40.00,50.00,Wednesday
8,142660111.65385485
2,4, 1, 4, 0,10,50.00,60.00,Wednesday
8,141558782.40394458
2,4, 1, 4, 0,11, 0.00,10.00,Wednesday
8,133357650.02338256
2,4, 1, 4, 0,11,10.00,20.00,Wednesday
8,131010619.91954906
2,4, 1, 4, 0,11,20.00,30.00,Wednesday
8,129251180.2580766
2,4, 1, 4, 0,11,30.00,40.00,Wednesday
8,127730930.76646546
2,4, 1, 4, 0,11,40.00,50.00,Wednesday
8,126339517.6503714
2,4, 1, 4, 0,11,50.00,60.00,Wednesday
8,125127631.13689789
2,4, 1, 4, 0,12, 0.00,10.00,Wednesday
8,120286310.22643697
2,4, 1, 4, 0,12,10.00,20.00,Wednesday
8,118451688.63520981
2,4, 1, 4, 0,12,20.00,30.00,Wednesday
8,117129024.31443185
2,4, 1, 4, 0,12,30.00,40.00,Wednesday
8,115968311.7519705
2,4, 1, 4, 0,12,40.00,50.00,Wednesday
8,114926737.21282235
2,4, 1, 4, 0,12,50.00,60.00,Wednesday
8,113994088.67921384
2,4, 1, 4, 0,13, 0.00,10.00,Wednesday
8,110125644.80055451
2,4, 1, 4, 0,13,10.00,20.00,Wednesday
8,108014897.03518437
2,4, 1, 4, 0,13,20.00,30.00,Wednesday
8,106250064.81950253
2,4, 1, 4, 0,13,30.00,40.00,Wednesday
8,104630481.86155918
2,4, 1, 4, 0,13,40.00,50.00,Wednesday
8,103096587.34544314
2,4, 1, 4, 0,13,50.00,60.00,Wednesday
8,101619976.16760373
2,4, 1, 4, 0,14, 0.00,10.00,Wednesday
8,101012837.83719425
2,4, 1, 4, 0,14,10.00,20.00,Wednesday
8,100347376.06223562
2,4, 1, 4, 0,14,20.00,30.00,Wednesday
8,99748991.43391792
2,4, 1, 4, 0,14,30.00,40.00,Wednesday
8,99469329.01002082
2,4, 1, 4, 0,14,40.00,50.00,Wednesday
8,99342580.72500013
2,4, 1, 4, 0,14,50.00,60.00,Wednesday
8,99289625.84937193
2,4, 1, 4, 0,15, 0.00,10.00,Wednesday
8,101773145.95237252
2,4, 1, 4, 0,15,10.00,20.00,Wednesday
8,101258736.4668196
2,4, 1, 4, 0,15,20.00,30.00,Wednesday
8,100653222.00891033
2,4, 1, 4, 0,15,30.00,40.00,Wednesday
8,99698582.72569369