Program Version,EnergyPlus, Version 23.2.0-7636e6b3e9, YMD=2025.01.14 17:12
1,5,Environment Title[],Latitude[deg],Longitude[deg],Time Zone[],Elevation[m]
2,8,Day of Simulation[],Month[],Day of Month[],DST Indicator[1=yes 0=no],Hour[],StartMinute[],EndMinute[],DayType
3,5,Cumulative Day of Simulation[],Month[],Day of Month[],DST Indicator[1=yes 0=no],DayType  ! When Daily Report Variables Requested
4,2,Cumulative Days of Simulation[],Month[]  ! When Monthly Report Variables Requested
5,1,Cumulative Days of Simulation[] ! When Run Period Report Variables Requested
6,1,Calendar Year of Simulation[] ! When Annual Report Variables Requested
8,1,Electricity:Facility [J] !TimeStep
End of Data Dictionary
1,RUN PERIOD 1,  45.47, -73.74,  -5.00,  36.00
2,1, 1, 1, 0, 1, 0.00,10.00,Wednesday
8,69214171.83238289
2,1, 1, 1, 0, 1,10.00,20.00,Wednesday
8,67355314.80912645
2,1, 1, 1, 0, 1,20.00,30.00,Wednesday
8,64809828.72971752
2,1, 1, 1, 0, 1,30.00,40.00,Wednesday
8,62570877.695045605
2,1, 1, 1, 0, 1,40.00,50.00,Wednesday
8,59769661.27794884
2,1, 1, 1, 0, 1,50.00,60.00,Wednesday
8,56881619.58404156
2,1, 1, 1, 0, 2, 0.00,10.00,Wednesday
8,57271830.94184437
2,1, 1, 1, 0, 2,10.00,20.00,Wednesday
8,57390501.13984617
2,1, 1, 1, 0, 2,20.00,30.00,Wednesday
8,57127801.33785408
2,1, 1, 1, 0, 2,30.00,40.00,Wednesday
8,56532462.5788609
2,1, 1, 1, 0, 2,40.00,50.00,Wednesday
8,56156293.303881444
2,1, 1, 1, 0, 2,50.00,60.00,Wednesday
8,55940779.89052764
2,1, 1, 1, 0, 3, 0.00,10.00,Wednesday
8,57108595.44098685
2,1, 1, 1, 0, 3,10.00,20.00,Wednesday
8,57476605.77130967
2,1, 1, 1, 0, 3,20.00,30.00,Wednesday
8,58121431.41900764
2,1, 1, 1, 0, 3,30.00,40.00,Wednesday
8,58941042.45043061
2,1, 1, 1, 0, 3,40.00,50.00,Wednesday
8,59754754.79107581
2,1, 1, 1, 0, 3,50.00,60.00,Wednesday
8,60002470.119658194
2,1, 1, 1, 0, 4, 0.00,10.00,Wednesday
8,58320075.02048057
2,1, 1, 1, 0, 4,10.00,20.00,Wednesday
8,56485059.15414442
2,1, 1, 1, 0, 4,20.00,30.00,Wednesday
8,54657159.007994995
2,1, 1, 1, 0, 4,30.00,40.00,Wednesday
8,52146266.320873395
2,1, 1, 1, 0, 4,40.00,50.00,Wednesday
8,49995165.71644788
2,1, 1, 1, 0, 4,50.00,60.00,Wednesday
8,47944598.95138236
2,1, 1, 1, 0, 5, 0.00,10.00,Wednesday
8,47678119.07408105
2,1, 1, 1, 0, 5,10.00,20.00,Wednesday
8,46524842.71508012
2,1, 1, 1, 0, 5,20.00,30.00,Wednesday
8,45755169.51960844
2,1, 1, 1, 0, 5,30.00,40.00,Wednesday
8,45098800.75534355
2,1, 1, 1, 0, 5,40.00,50.00,Wednesday
8,44616491.70783234
2,1, 1, 1, 0, 5,50.00,60.00,Wednesday
8,43387579.44801634
2,1, 1, 1, 0, 6, 0.00,10.00,Wednesday
8,43562322.60624518
2,1, 1, 1, 0, 6,10.00,20.00,Wednesday
8,43752288.99006289
2,1, 1, 1, 0, 6,20.00,30.00,Wednesday
8,44140593.51737246
2,1, 1, 1, 0, 6,30.00,40.00,Wednesday
8,43757256.06126905
2,1, 1, 1, 0, 6,40.00,50.00,Wednesday
8,43812735.6257116
2,1, 1, 1, 0, 6,50.00,60.00,Wednesday
8,43972996.64826181
2,1, 1, 1, 0, 7, 0.00,10.00,Wednesday
8,43119498.32998654
2,1, 1, 1, 0, 7,10.00,20.00,Wednesday
8,41412698.15773595
2,1, 1, 1, 0, 7,20.00,30.00,Wednesday
8,40152300.67235274
2,1, 1, 1, 0, 7,30.00,40.00,Wednesday
8,39002598.809912406
2,1, 1, 1, 0, 7,40.00,50.00,Wednesday
8,38112971.25720593
2,1, 1, 1, 0, 7,50.00,60.00,Wednesday
8,36430251.10271551
2,1, 1, 1, 0, 8, 0.00,10.00,Wednesday
8,96893829.18617184
2,1, 1, 1, 0, 8,10.00,20.00,Wednesday
8,32358954.935189184
2,1, 1, 1, 0, 8,20.00,30.00,Wednesday
8,69165799.35219236
2,1, 1, 1, 0, 8,30.00,40.00,Wednesday
8,62606927.54066992
2,1, 1, 1, 0, 8,40.00,50.00,Wednesday
8,61310262.84270648
2,1, 1, 1, 0, 8,50.00,60.00,Wednesday
8,61267162.27917413
2,1, 1, 1, 0, 9, 0.00,10.00,Wednesday
8,113040066.17637943
2,1, 1, 1, 0, 9,10.00,20.00,Wednesday
8,98419439.06429316
2,1, 1, 1, 0, 9,20.00,30.00,Wednesday
8,86981916.90188332
2,1, 1, 1, 0, 9,30.00,40.00,Wednesday
8,87161475.6573184
2,1, 1, 1, 0, 9,40.00,50.00,Wednesday
8,89863120.29733577
2,1, 1, 1, 0, 9,50.00,60.00,Wednesday
8,90502895.9137767
2,1, 1, 1, 0,10, 0.00,10.00,Wednesday
8,182874552.19681153
2,1, 1, 1, 0,10,10.00,20.00,Wednesday
8,187681620.71319613
2,1, 1, 1, 0,10,20.00,30.00,Wednesday
8,193612212.0243319
2,1, 1, 1, 0,10,30.00,40.00,Wednesday
8,199727442.2120326
2,1, 1, 1, 0,10,40.00,50.00,Wednesday
8,206246339.53489938
2,1, 1, 1, 0,10,50.00,60.00,Wednesday
8,213063544.27084938
2,1, 1, 1, 0,11, 0.00,10.00,Wednesday
8,207122318.06498843
2,1, 1, 1, 0,11,10.00,20.00,Wednesday
8,205009475.92370582
2,1, 1, 1, 0,11,20.00,30.00,Wednesday
8,203387028.66716763
2,1, 1, 1, 0,11,30.00,40.00,Wednesday
8,201995316.52849066
2,1, 1, 1, 0,11,40.00,50.00,Wednesday
8,200757184.11259732
2,1, 1, 1, 0,11,50.00,60.00,Wednesday
8,199637756.25123352
2,1, 1, 1, 0,12, 0.00,10.00,Wednesday
8,197826388.21423855
2,1, 1, 1, 0,12,10.00,20.00,Wednesday
8,198927037.6149495
2,1, 1, 1, 0,12,20.00,30.00,Wednesday
8,200214962.11797243
2,1, 1, 1, 0,12,30.00,40.00,Wednesday
8,201753183.40377796
2,1, 1, 1, 0,12,40.00,50.00,Wednesday
8,203440281.9651267
2,1, 1, 1, 0,12,50.00,60.00,Wednesday
8,205217039.82153934
2,1, 1, 1, 0,13, 0.00,10.00,Wednesday
8,200970979.77876255
2,1, 1, 1, 0,13,10.00,20.00,Wednesday
8,197608254.5802762
2,1, 1, 1, 0,13,20.00,30.00,Wednesday
8,194525196.01730388
2,1, 1, 1, 0,13,30.00,40.00,Wednesday
8,191500233.30215302
2,1, 1, 1, 0,13,40.00,50.00,Wednesday
8,188515580.0037593
2,1, 1, 1, 0,13,50.00,60.00,Wednesday
8,185554631.12484118
2,1, 1, 1, 0,14, 0.00,10.00,Wednesday
8,188989184.00328127
2,1, 1, 1, 0,14,10.00,20.00,Wednesday
8,192394843.6212077
2,1, 1, 1, 0,14,20.00,30.00,Wednesday
8,195878757.16497844
2,1, 1, 1, 0,14,30.00,40.00,Wednesday
8,199418440.88346305
2,1, 1, 1, 0,14,40.00,50.00,Wednesday
8,202999567.0369854
2,1, 1, 1, 0,14,50.00,60.00,Wednesday
8,206617125.02675775
2,1, 1, 1, 0,15, 0.00,10.00,Wednesday
8,206971807.05645028
2,1, 1, 1, 0,15,10.00,20.00,Wednesday
8,206341671.78203756
2,1, 1, 1, 0,15,20.00,30.00,Wednesday
8,205646880.7082852
2,1, 1, 1, 0,15,30.00,40.00,Wednesday
8,205006785.79055524
2,1, 1, 1, 0,15,40.00,50.00,Wednesday
8,204382208.61747095
2,1, 1, 1, 0,15,50.00,60.00,Wednesday
8,203761364.06018776
2,1, 1, 1, 0,16, 0.00,10.00,Wednesday
8,204078278.7508283
2,1, 1, 1, 0,16,10.00,20.00,Wednesday
8,203001310.76064467
2,1, 1, 1, 0,16,20.00,30.00,Wednesday
8,201805188.6418201
2,1, 1, 1, 0,16,30.00,40.00,Wednesday
8,200755965.26365438
2,1, 1, 1, 0,16,40.00,50.00,Wednesday
8,199813578.40372545
2,1, 1, 1, 0,16,50.00,60.00,Wednesday
8,198989428.1234463
2,1, 1, 1, 0,17, 0.00,10.00,Wednesday
8,201662550.68226677
2,1, 1, 1, 0,17,10.00,20.00,Wednesday
8,203600303.46993002
2,1, 1, 1, 0,17,20.00,30.00,Wednesday
8,204762966.47882345
2,1, 1, 1, 0,17,30.00,40.00,Wednesday
8,205621876.11131048
2,1, 1, 1, 0,17,40.00,50.00,Wednesday
8,206432907.6773933
2,1, 1, 1, 0,17,50.00,60.00,Wednesday
8,206607152.38886988
2,1, 1, 1, 0,18, 0.00,10.00,Wednesday
8,208478603.3091491
2,1, 1, 1, 0,18,10.00,20.00,Wednesday
8,209273380.21299383
2,1, 1, 1, 0,18,20.00,30.00,Wednesday
8,209838108.770415
2,1, 1, 1, 0,18,30.00,40.00,Wednesday
8,210262070.28820658
2,1, 1, 1, 0,18,40.00,50.00,Wednesday
8,210625072.43286535
2,1, 1, 1, 0,18,50.00,60.00,Wednesday
8,210942479.1554831
2,1, 1, 1, 0,19, 0.00,10.00,Wednesday
8,209057889.55219245
2,1, 1, 1, 0,19,10.00,20.00,Wednesday
8,207007623.79403654
2,1, 1, 1, 0,19,20.00,30.00,Wednesday
8,204307346.76399007
2,1, 1, 1, 0,19,30.00,40.00,Wednesday
8,202174644.68973637
2,1, 1, 1, 0,19,40.00,50.00,Wednesday
8,200131847.00293505
2,1, 1, 1, 0,19,50.00,60.00,Wednesday
8,197767708.37354246
2,1, 1, 1, 0,20, 0.00,10.00,Wednesday
8,168320513.48849368
2,1, 1, 1, 0,20,10.00,20.00,Wednesday
8,172158708.64610544
2,1, 1, 1, 0,20,20.00,30.00,Wednesday
8,175553948.98899102
2,1, 1, 1, 0,20,30.00,40.00,Wednesday
8,176158628.12405998
2,1, 1, 1, 0,20,40.00,50.00,Wednesday
8,175761417.18748355
2,1, 1, 1, 0,20,50.00,60.00,Wednesday
8,175443464.89996988
2,1, 1, 1, 0,21, 0.00,10.00,Wednesday
8,174591876.28469872
2,1, 1, 1, 0,21,10.00,20.00,Wednesday
8,174982572.99796638
2,1, 1, 1, 0,21,20.00,30.00,Wednesday
8,174226375.21647802
2,1, 1, 1, 0,21,30.00,40.00,Wednesday
8,173116822.75919005
2,1, 1, 1, 0,21,40.00,50.00,Wednesday
8,172854040.82627207
2,1, 1, 1, 0,21,50.00,60.00,Wednesday
8,171563837.6313278
2,1, 1, 1, 0,22, 0.00,10.00,Wednesday
8,15912431.075592436
2,1, 1, 1, 0,22,10.00,20.00,Wednesday
8,19357846.41939739
2,1, 1, 1, 0,22,20.00,30.00,Wednesday
8,26493135.634955574
2,1, 1, 1, 0,22,30.00,40.00,Wednesday
8,36617894.86213309
2,1, 1, 1, 0,22,40.00,50.00,Wednesday
8,42921935.79524194
2,1, 1, 1, 0,22,50.00,60.00,Wednesday
8,41916525.67301773
2,1, 1, 1, 0,23, 0.00,10.00,Wednesday
8,50367798.80354063
2,1, 1, 1, 0,23,10.00,20.00,Wednesday
8,56219338.78549536
2,1, 1, 1, 0,23,20.00,30.00,Wednesday
8,60897020.415104404
2,1, 1, 1, 0,23,30.00,40.00,Wednesday
8,64502239.376095116
2,1, 1, 1, 0,23,40.00,50.00,Wednesday
8,68444144.14488685
2,1, 1, 1, 0,23,50.00,60.00,Wednesday
8,72329066.69116257
2,1, 1, 1, 0,24, 0.00,10.00,Wednesday
8,75266687.71604112
2,1, 1, 1, 0,24,10.00,20.00,Wednesday
8,75356964.59336656
2,1, 1, 1, 0,24,20.00,30.00,Wednesday
8,75584916.7485159
2,1, 1, 1, 0,24,30.00,40.00,Wednesday
8,75819498.3654141
2,1, 1, 1, 0,24,40.00,50.00,Wednesday
8,76330347.47530773
2,1, 1, 1, 0,24,50.00,60.00,Wednesday
8,75892359.59010096
2,2, 1, 2, 0, 1, 0.00,10.00,Thursday
8,75146186.78709075
2,2, 1, 2, 0, 1,10.00,20.00,Thursday
8,73743970.59410706
2,2, 1, 2, 0, 1,20.00,30.00,Thursday
8,72536308.45825645
2,2, 1, 2, 0, 1,30.00,40.00,Thursday
8,70434585.35427992
2,2, 1, 2, 0, 1,40.00,50.00,Thursday
8,68784431.79221632
2,2, 1, 2, 0, 1,50.00,60.00,Thursday
8,67207072.37767819
2,2, 1, 2, 0, 2, 0.00,10.00,Thursday
8,66274755.42856367
2,2, 1, 2, 0, 2,10.00,20.00,Thursday
8,64208502.22544575
2,2, 1, 2, 0, 2,20.00,30.00,Thursday
8,62558998.271630995
2,2, 1, 2, 0, 2,30.00,40.00,Thursday
8,60997717.18369685
2,2, 1, 2, 0, 2,40.00,50.00,Thursday
8,59689654.25335237
2,2, 1, 2, 0, 2,50.00,60.00,Thursday
8,57556296.789285
2,2, 1, 2, 0, 3, 0.00,10.00,Thursday
8,59507295.459832065
2,2, 1, 2, 0, 3,10.00,20.00,Thursday
8,61427028.85624375
2,2, 1, 2, 0, 3,20.00,30.00,Thursday
8,63576653.27683264
2,2, 1, 2, 0, 3,30.00,40.00,Thursday
8,64923649.6090814
2,2, 1, 2, 0, 3,40.00,50.00,Thursday
8,66724008.943936646
2,2, 1, 2, 0, 3,50.00,60.00,Thursday
8,68632349.11409256
2,2, 1, 2, 0, 4, 0.00,10.00,Thursday
8,71216652.51280805
2,2, 1, 2, 0, 4,10.00,20.00,Thursday
8,72924498.20237385
2,2, 1, 2, 0, 4,20.00,30.00,Thursday
8,75062142.32089408
2,2, 1, 2, 0, 4,30.00,40.00,Thursday
8,77298957.5078807
2,2, 1, 2, 0, 4,40.00,50.00,Thursday
8,79755576.20915897
2,2, 1, 2, 0, 4,50.00,60.00,Thursday
8,81420881.9132335
2,2, 1, 2, 0, 5, 0.00,10.00,Thursday
8,82251134.15984292
2,2, 1, 2, 0, 5,10.00,20.00,Thursday
8,83241420.49236917
2,2, 1, 2, 0, 5,20.00,30.00,Thursday
8,84446690.98517358
2,2, 1, 2, 0, 5,30.00,40.00,Thursday
8,84877053.90518272
2,2, 1, 2, 0, 5,40.00,50.00,Thursday
8,85754387.88346322
2,2, 1, 2, 0, 5,50.00,60.00,Thursday
8,86746162.76619545
2,2, 1, 2, 0, 6, 0.00,10.00,Thursday
8,85097364.39465481
2,2, 1, 2, 0, 6,10.00,20.00,Thursday
8,82718764.10699023
2,2, 1, 2, 0, 6,20.00,30.00,Thursday
8,80687137.40456176
2,2, 1, 2, 0, 6,30.00,40.00,Thursday
8,78760952.75907058
2,2, 1, 2, 0, 6,40.00,50.00,Thursday
8,77038506.90026358
2,2, 1, 2, 0, 6,50.00,60.00,Thursday
8,74532039.79236677
2,2, 1, 2, 0, 7, 0.00,10.00,Thursday
8,75988694.82650447
2,2, 1, 2, 0, 7,10.00,20.00,Thursday
8,77469708.12775841
2,2, 1, 2, 0, 7,20.00,30.00,Thursday
8,79144055.5531082
2,2, 1, 2, 0, 7,30.00,40.00,Thursday
8,80040253.26439293
2,2, 1, 2, 0, 7,40.00,50.00,Thursday
8,81370123.01132357
2,2, 1, 2, 0, 7,50.00,60.00,Thursday
8,82806443.89456613
2,2, 1, 2, 0, 8, 0.00,10.00,Thursday
8,141109312.3911552
2,2, 1, 2, 0, 8,10.00,20.00,Thursday
8,108061012.66451843
2,2, 1, 2, 0, 8,20.00,30.00,Thursday
8,105553026.12743944
2,2, 1, 2, 0, 8,30.00,40.00,Thursday
8,99452018.11512817
2,2, 1, 2, 0, 8,40.00,50.00,Thursday
8,95055269.8391868
2,2, 1, 2, 0, 8,50.00,60.00,Thursday
8,90976410.55445403
2,2, 1, 2, 0, 9, 0.00,10.00,Thursday
8,127683072.89514548
2,2, 1, 2, 0, 9,10.00,20.00,Thursday
8,138722292.98141924
2,2, 1, 2, 0, 9,20.00,30.00,Thursday
8,106079257.30621575
2,2, 1, 2, 0, 9,30.00,40.00,Thursday
8,122814797.79715134
2,2, 1, 2, 0, 9,40.00,50.00,Thursday
8,122114559.41460162
2,2, 1, 2, 0, 9,50.00,60.00,Thursday
8,124341328.48235214
2,2, 1, 2, 0,10, 0.00,10.00,Thursday
8,212718863.73462108
2,2, 1, 2, 0,10,10.00,20.00,Thursday
8,205642324.9588423
2,2, 1, 2, 0,10,20.00,30.00,Thursday
8,199892865.3082958
2,2, 1, 2, 0,10,30.00,40.00,Thursday
8,194741576.40426415
2,2, 1, 2, 0,10,40.00,50.00,Thursday
8,189688289.77567452
2,2, 1, 2, 0,10,50.00,60.00,Thursday
8,184800725.1678811
2,2, 1, 2, 0,11, 0.00,10.00,Thursday
8,184789183.83131927
2,2, 1, 2, 0,11,10.00,20.00,Thursday
8,188467133.85577774
2,2, 1, 2, 0,11,20.00,30.00,Thursday
8,192631901.15730956
2,2, 1, 2, 0,11,30.00,40.00,Thursday
8,196998933.15811965
2,2, 1, 2, 0,11,40.00,50.00,Thursday
8,201386479.88417864
2,2, 1, 2, 0,11,50.00,60.00,Thursday
8,205879742.48078737
2,2, 1, 2, 0,12, 0.00,10.00,Thursday
8,199564747.46220356
2,2, 1, 2, 0,12,10.00,20.00,Thursday
8,195125489.14156726
2,2, 1, 2, 0,12,20.00,30.00,Thursday
8,190976621.8239762
2,2, 1, 2, 0,12,30.00,40.00,Thursday
8,186939653.176874
2,2, 1, 2, 0,12,40.00,50.00,Thursday
8,182996711.93146855
2,2, 1, 2, 0,12,50.00,60.00,Thursday
8,179163736.9074384
2,2, 1, 2, 0,13, 0.00,10.00,Thursday
8,177908956.92748886
2,2, 1, 2, 0,13,10.00,20.00,Thursday
8,176894501.71432927
2,2, 1, 2, 0,13,20.00,30.00,Thursday
8,176083337.53697315
2,2, 1, 2, 0,13,30.00,40.00,Thursday
8,175283753.94118434
2,2, 1, 2, 0,13,40.00,50.00,Thursday
8,174505579.09621555
2,2, 1, 2, 0,13,50.00,60.00,Thursday
8,173742448.20994103
2,2, 1, 2, 0,14, 0.00,10.00,Thursday
8,174622107.57136402
2,2, 1, 2, 0,14,10.00,20.00,Thursday
8,175633719.24902543
2,2, 1, 2, 0,14,20.00,30.00,Thursday
8,176703908.29105657
2,2, 1, 2, 0,14,30.00,40.00,Thursday
8,177698100.400453
2,2, 1, 2, 0,14,40.00,50.00,Thursday
8,178672174.97119632
2,2, 1, 2, 0,14,50.00,60.00,Thursday
8,179640172.87383884
2,2, 1, 2, 0,15, 0.00,10.00,Thursday
8,179337989.95727533
2,2, 1, 2, 0,15,10.00,20.00,Thursday
8,179008311.47436374
2,2, 1, 2, 0,15,20.00,30.00,Thursday
8,178691921.73637375
2,2, 1, 2, 0,15,30.00,40.00,Thursday
8,178563323.46676844
2,2, 1, 2, 0,15,40.00,50.00,Thursday
8,178509019.24424517
2,2, 1, 2, 0,15,50.00,60.00,Thursday
8,178498539.17319033
2,2, 1, 2, 0,16, 0.00,10.00,Thursday
8,177831856.86293608
2,2, 1, 2, 0,16,10.00,20.00,Thursday
8,176564037.33137226
2,2, 1, 2, 0,16,20.00,30.00,Thursday
8,175261721.08078
2,2, 1, 2, 0,16,30.00,40.00,Thursday
8,174128015.64229682
2,2, 1, 2, 0,16,40.00,50.00,Thursday
8,173138544.5697164
2,2, 1, 2, 0,16,50.00,60.00,Thursday
8,172227199.37752074
2,2, 1, 2, 0,17, 0.00,10.00,Thursday
8,171397430.66989762
2,2, 1, 2, 0,17,10.00,20.00,Thursday
8,170053726.16009143
2,2, 1, 2, 0,17,20.00,30.00,Thursday
8,167909855.3821817
2,2, 1, 2, 0,17,30.00,40.00,Thursday
8,165671763.73825115
2,2, 1, 2, 0,17,40.00,50.00,Thursday
8,163341474.34024784
2,2, 1, 2, 0,17,50.00,60.00,Thursday
8,160365997.80923674
2,2, 1, 2, 0,18, 0.00,10.00,Thursday
8,159148790.9154311
2,2, 1, 2, 0,18,10.00,20.00,Thursday
8,157099299.4062263
2,2, 1, 2, 0,18,20.00,30.00,Thursday
8,154746564.46887326
2,2, 1, 2, 0,18,30.00,40.00,Thursday
8,152315502.82269537
2,2, 1, 2, 0,18,40.00,50.00,Thursday
8,149834467.84768105
2,2, 1, 2, 0,18,50.00,60.00,Thursday
8,147317493.57048294
2,2, 1, 2, 0,19, 0.00,10.00,Thursday
8,146560037.69336712
2,2, 1, 2, 0,19,10.00,20.00,Thursday
8,145804090.83132023
2,2, 1, 2, 0,19,20.00,30.00,Thursday
8,144572096.4681752
2,2, 1, 2, 0,19,30.00,40.00,Thursday
8,143977109.094778
2,2, 1, 2, 0,19,40.00,50.00,Thursday
8,143304412.2480731
2,2, 1, 2, 0,19,50.00,60.00,Thursday
8,142410596.32535163
2,2, 1, 2, 0,20, 0.00,10.00,Thursday
8,121115223.63081414
2,2, 1, 2, 0,20,10.00,20.00,Thursday
8,121441818.50943902
2,2, 1, 2, 0,20,20.00,30.00,Thursday
8,121572093.96554063
2,2, 1, 2, 0,20,30.00,40.00,Thursday
8,123790830.60516424
2,2, 1, 2, 0,20,40.00,50.00,Thursday
8,127361678.87483211
2,2, 1, 2, 0,20,50.00,60.00,Thursday
8,124012359.46357298
2,2, 1, 2, 0,21, 0.00,10.00,Thursday
8,123833947.25140356
2,2, 1, 2, 0,21,10.00,20.00,Thursday
8,124162877.48903403
2,2, 1, 2, 0,21,20.00,30.00,Thursday
8,123265630.64930415
2,2, 1, 2, 0,21,30.00,40.00,Thursday
8,122440107.71948925
2,2, 1, 2, 0,21,40.00,50.00,Thursday
8,122042951.56180434
2,2, 1, 2, 0,21,50.00,60.00,Thursday
8,120618417.2813997
2,2, 1, 2, 0,22, 0.00,10.00,Thursday
8,7065102.857624548
2,2, 1, 2, 0,22,10.00,20.00,Thursday
8,7124072.779120027
2,2, 1, 2, 0,22,20.00,30.00,Thursday
8,9622329.24007151
2,2, 1, 2, 0,22,30.00,40.00,Thursday
8,12260741.756561846
2,2, 1, 2, 0,22,40.00,50.00,Thursday
8,14942706.576504152
2,2, 1, 2, 0,22,50.00,60.00,Thursday
8,19531437.51470338
2,2, 1, 2, 0,23, 0.00,10.00,Thursday
8,28915784.57550463
2,2, 1, 2, 0,23,10.00,20.00,Thursday
8,39432501.13052501
2,2, 1, 2, 0,23,20.00,30.00,Thursday
8,40549138.209182635
2,2, 1, 2, 0,23,30.00,40.00,Thursday
8,43369722.16611449
2,2, 1, 2, 0,23,40.00,50.00,Thursday
8,45890831.85952036
2,2, 1, 2, 0,23,50.00,60.00,Thursday
8,48285600.670684025
2,2, 1, 2, 0,24, 0.00,10.00,Thursday
8,51284163.38868235
2,2, 1, 2, 0,24,10.00,20.00,Thursday
8,51275165.44935794
2,2, 1, 2, 0,24,20.00,30.00,Thursday
8,51458436.3077754
2,2, 1, 2, 0,24,30.00,40.00,Thursday
8,51575576.20653938
2,2, 1, 2, 0,24,40.00,50.00,Thursday
8,52178070.44950133
2,2, 1, 2, 0,24,50.00,60.00,Thursday
8,51616251.95679297
2,3, 1, 3, 0, 1, 0.00,10.00,Friday
8,51905886.42848458
2,3, 1, 3, 0, 1,10.00,20.00,Friday
8,51442131.28880769
2,3, 1, 3, 0, 1,20.00,30.00,Friday
8,51406480.80932061
2,3, 1, 3, 0, 1,30.00,40.00,Friday
8,50233160.43991366
2,3, 1, 3, 0, 1,40.00,50.00,Friday
8,49590777.85360394
2,3, 1, 3, 0, 1,50.00,60.00,Friday
8,48930397.69812051
2,3, 1, 3, 0, 2, 0.00,10.00,Friday
8,52318469.5576542
2,3, 1, 3, 0, 2,10.00,20.00,Friday
8,54302771.5211639
2,3, 1, 3, 0, 2,20.00,30.00,Friday
8,56800929.81683775
2,3, 1, 3, 0, 2,30.00,40.00,Friday
8,59298255.621543415
2,3, 1, 3, 0, 2,40.00,50.00,Friday
8,62350933.89717406
2,3, 1, 3, 0, 2,50.00,60.00,Friday
8,64291041.33907225
2,3, 1, 3, 0, 3, 0.00,10.00,Friday
8,64118553.7709556
2,3, 1, 3, 0, 3,10.00,20.00,Friday
8,63816456.93695157
2,3, 1, 3, 0, 3,20.00,30.00,Friday
8,64049469.493975505
2,3, 1, 3, 0, 3,30.00,40.00,Friday
8,63163478.48429259
2,3, 1, 3, 0, 3,40.00,50.00,Friday
8,62829997.571502365
2,3, 1, 3, 0, 3,50.00,60.00,Friday
8,62492890.36464345
2,3, 1, 3, 0, 4, 0.00,10.00,Friday
8,66727143.85001598
2,3, 1, 3, 0, 4,10.00,20.00,Friday
8,69775292.65088345
2,3, 1, 3, 0, 4,20.00,30.00,Friday
8,73365973.01397032
2,3, 1, 3, 0, 4,30.00,40.00,Friday
8,76952370.11682014
2,3, 1, 3, 0, 4,40.00,50.00,Friday
8,81089622.70770063
2,3, 1, 3, 0, 4,50.00,60.00,Friday
8,84107458.25612694
2,3, 1, 3, 0, 5, 0.00,10.00,Friday
8,83562725.48170687
2,3, 1, 3, 0, 5,10.00,20.00,Friday
8,82986010.25187322
2,3, 1, 3, 0, 5,20.00,30.00,Friday
8,82962040.65462515
2,3, 1, 3, 0, 5,30.00,40.00,Friday
8,81821008.81681262
2,3, 1, 3, 0, 5,40.00,50.00,Friday
8,81236646.6729199
2,3, 1, 3, 0, 5,50.00,60.00,Friday
8,80651715.76187523
2,3, 1, 3, 0, 6, 0.00,10.00,Friday
8,82437890.7324682
2,3, 1, 3, 0, 6,10.00,20.00,Friday
8,83076246.43040301
2,3, 1, 3, 0, 6,20.00,30.00,Friday
8,84262359.14694601
2,3, 1, 3, 0, 6,30.00,40.00,Friday
8,85443021.75684881
2,3, 1, 3, 0, 6,40.00,50.00,Friday
8,87175014.19333507
2,3, 1, 3, 0, 6,50.00,60.00,Friday
8,87784610.89032926
2,3, 1, 3, 0, 7, 0.00,10.00,Friday
8,83592335.14145447
2,3, 1, 3, 0, 7,10.00,20.00,Friday
8,79430910.04213354
2,3, 1, 3, 0, 7,20.00,30.00,Friday
8,75860856.93660639
2,3, 1, 3, 0, 7,30.00,40.00,Friday
8,71206002.88797677
2,3, 1, 3, 0, 7,40.00,50.00,Friday
8,67143164.89310797
2,3, 1, 3, 0, 7,50.00,60.00,Friday
8,63114131.1362842
2,3, 1, 3, 0, 8, 0.00,10.00,Friday
8,123834289.86677144
2,3, 1, 3, 0, 8,10.00,20.00,Friday
8,93120100.64078258
2,3, 1, 3, 0, 8,20.00,30.00,Friday
8,97221223.32536547
2,3, 1, 3, 0, 8,30.00,40.00,Friday
8,94144212.99379683
2,3, 1, 3, 0, 8,40.00,50.00,Friday
8,94514872.20570458
2,3, 1, 3, 0, 8,50.00,60.00,Friday
8,95133708.84672117
2,3, 1, 3, 0, 9, 0.00,10.00,Friday
8,126589279.6496401
2,3, 1, 3, 0, 9,10.00,20.00,Friday
8,133816415.7682103
2,3, 1, 3, 0, 9,20.00,30.00,Friday
8,94852735.34244753
2,3, 1, 3, 0, 9,30.00,40.00,Friday
8,106250804.63315214
2,3, 1, 3, 0, 9,40.00,50.00,Friday
8,100042666.38355376
2,3, 1, 3, 0, 9,50.00,60.00,Friday
8,96809537.46559939
2,3, 1, 3, 0,10, 0.00,10.00,Friday
8,166761999.4039228
2,3, 1, 3, 0,10,10.00,20.00,Friday
8,163210918.78488186
2,3, 1, 3, 0,10,20.00,30.00,Friday
8,160812740.83505395
2,3, 1, 3, 0,10,30.00,40.00,Friday
8,158669820.6217816
2,3, 1, 3, 0,10,40.00,50.00,Friday
8,156559381.0967122
2,3, 1, 3, 0,10,50.00,60.00,Friday
8,154596470.00717112
2,3, 1, 3, 0,11, 0.00,10.00,Friday
8,150988493.39413038
2,3, 1, 3, 0,11,10.00,20.00,Friday
8,150117856.50690347
2,3, 1, 3, 0,11,20.00,30.00,Friday
8,149664259.02096593
2,3, 1, 3, 0,11,30.00,40.00,Friday
8,149242490.0478801
2,3, 1, 3, 0,11,40.00,50.00,Friday
8,149005179.54753548
2,3, 1, 3, 0,11,50.00,60.00,Friday
8,148841993.8585068
2,3, 1, 3, 0,12, 0.00,10.00,Friday
8,146178801.74665457
2,3, 1, 3, 0,12,10.00,20.00,Friday
8,144575419.1094155
2,3, 1, 3, 0,12,20.00,30.00,Friday
8,143163899.24176615
2,3, 1, 3, 0,12,30.00,40.00,Friday
8,141820878.19011956
2,3, 1, 3, 0,12,40.00,50.00,Friday
8,140534267.2465131
2,3, 1, 3, 0,12,50.00,60.00,Friday
8,139442072.44784105
2,3, 1, 3, 0,13, 0.00,10.00,Friday
8,137654587.31958023
2,3, 1, 3, 0,13,10.00,20.00,Friday
8,136391948.20988035
2,3, 1, 3, 0,13,20.00,30.00,Friday
8,135233866.77103496
2,3, 1, 3, 0,13,30.00,40.00,Friday
8,134155833.40763107
2,3, 1, 3, 0,13,40.00,50.00,Friday
8,133113591.50457956
2,3, 1, 3, 0,13,50.00,60.00,Friday
8,132082927.28527206
2,3, 1, 3, 0,14, 0.00,10.00,Friday
8,131800502.02188955
2,3, 1, 3, 0,14,10.00,20.00,Friday
8,131892680.84969129
2,3, 1, 3, 0,14,20.00,30.00,Friday
8,132075286.09199385
2,3, 1, 3, 0,14,30.00,40.00,Friday
8,131927376.61967798
2,3, 1, 3, 0,14,40.00,50.00,Friday
8,131681236.7940741
2,3, 1, 3, 0,14,50.00,60.00,Friday
8,131493394.2988497
2,3, 1, 3, 0,15, 0.00,10.00,Friday
8,129555287.34885104
2,3, 1, 3, 0,15,10.00,20.00,Friday
8,128325224.55366325
2,3, 1, 3, 0,15,20.00,30.00,Friday
8,127207191.90763225
2,3, 1, 3, 0,15,30.00,40.00,Friday
8,126314261.93381776
2,3, 1, 3, 0,15,40.00,50.00,Friday
8,125488785.01017413
2,3, 1, 3, 0,15,50.00,60.00,Friday
8,124655141.48268043
2,3, 1, 3, 0,16, 0.00,10.00,Friday
8,122404491.87607798
2,3, 1, 3, 0,16,10.00,20.00,Friday
8,120610591.69210823
2,3, 1, 3, 0,16,20.00,30.00,Friday
8,118894230.93529017
2,3, 1, 3, 0,16,30.00,40.00,Friday
8,117408229.46304768
2,3, 1, 3, 0,16,40.00,50.00,Friday
8,116096695.32550626
2,3, 1, 3, 0,16,50.00,60.00,Friday
8,114931229.45482224
2,3, 1, 3, 0,17, 0.00,10.00,Friday
8,113772663.76754087
2,3, 1, 3, 0,17,10.00,20.00,Friday
8,112901176.08517253
2,3, 1, 3, 0,17,20.00,30.00,Friday
8,111492103.6427351
2,3, 1, 3, 0,17,30.00,40.00,Friday
8,109938814.68207075
2,3, 1, 3, 0,17,40.00,50.00,Friday
8,108356966.68475454
2,3, 1, 3, 0,17,50.00,60.00,Friday
8,106185667.97095181
2,3, 1, 3, 0,18, 0.00,10.00,Friday
8,105900003.59485647
2,3, 1, 3, 0,18,10.00,20.00,Friday
8,105267917.77005248
2,3, 1, 3, 0,18,20.00,30.00,Friday
8,104403461.16866837
2,3, 1, 3, 0,18,30.00,40.00,Friday
8,103511717.35723448
2,3, 1, 3, 0,18,40.00,50.00,Friday
8,102594313.41395357
2,3, 1, 3, 0,18,50.00,60.00,Friday
8,101657301.67370354
2,3, 1, 3, 0,19, 0.00,10.00,Friday
8,100378169.25461936
2,3, 1, 3, 0,19,10.00,20.00,Friday
8,99139278.2229269
2,3, 1, 3, 0,19,20.00,30.00,Friday
8,97584091.59907259
2,3, 1, 3, 0,19,30.00,40.00,Friday
8,96672286.24156608
2,3, 1, 3, 0,19,40.00,50.00,Friday
8,95529784.78235245
2,3, 1, 3, 0,19,50.00,60.00,Friday
8,94241188.12650685
2,3, 1, 3, 0,20, 0.00,10.00,Friday
8,80667127.12435137
2,3, 1, 3, 0,20,10.00,20.00,Friday
8,83265544.40595262
2,3, 1, 3, 0,20,20.00,30.00,Friday
8,85400149.0532675
2,3, 1, 3, 0,20,30.00,40.00,Friday
8,87102974.98181339
2,3, 1, 3, 0,20,40.00,50.00,Friday
8,90823528.28683898
2,3, 1, 3, 0,20,50.00,60.00,Friday
8,93422558.80219963
2,3, 1, 3, 0,21, 0.00,10.00,Friday
8,95207090.78357115
2,3, 1, 3, 0,21,10.00,20.00,Friday
8,96220886.07446414
2,3, 1, 3, 0,21,20.00,30.00,Friday
8,96501760.75946343
2,3, 1, 3, 0,21,30.00,40.00,Friday
8,97030751.54023735
2,3, 1, 3, 0,21,40.00,50.00,Friday
8,97663213.0614475
2,3, 1, 3, 0,21,50.00,60.00,Friday
8,97330653.97706567
2,3, 1, 3, 0,22, 0.00,10.00,Friday
8,7479992.370825177
2,3, 1, 3, 0,22,10.00,20.00,Friday
8,9351492.29144712
2,3, 1, 3, 0,22,20.00,30.00,Friday
8,11695369.751439625
2,3, 1, 3, 0,22,30.00,40.00,Friday
8,13820554.239924321
2,3, 1, 3, 0,22,40.00,50.00,Friday
8,25794842.559243105
2,3, 1, 3, 0,22,50.00,60.00,Friday
8,37916966.08287499
2,3, 1, 3, 0,23, 0.00,10.00,Friday
8,30076901.17009143
2,3, 1, 3, 0,23,10.00,20.00,Friday
8,33339830.793551836
2,3, 1, 3, 0,23,20.00,30.00,Friday
8,33458713.115924157
2,3, 1, 3, 0,23,30.00,40.00,Friday
8,32390126.7834803
2,3, 1, 3, 0,23,40.00,50.00,Friday
8,31759779.130555697
2,3, 1, 3, 0,23,50.00,60.00,Friday
8,31040131.573952004
2,3, 1, 3, 0,24, 0.00,10.00,Friday
8,34468911.81964919
2,3, 1, 3, 0,24,10.00,20.00,Friday
8,35023291.91949584
2,3, 1, 3, 0,24,20.00,30.00,Friday
8,35770226.064411
2,3, 1, 3, 0,24,30.00,40.00,Friday
8,36455116.7095355
2,3, 1, 3, 0,24,40.00,50.00,Friday
8,37630984.39297696
2,3, 1, 3, 0,24,50.00,60.00,Friday
8,37642359.285312034
2,4, 1, 4, 0, 1, 0.00,10.00,Saturday
8,38812151.35225994
2,4, 1, 4, 0, 1,10.00,20.00,Saturday
8,39178960.82285573
2,4, 1, 4, 0, 1,20.00,30.00,Saturday
8,39962838.441177584
2,4, 1, 4, 0, 1,30.00,40.00,Saturday
8,39604786.64445057
2,4, 1, 4, 0, 1,40.00,50.00,Saturday
8,39777046.38286503
2,4, 1, 4, 0, 1,50.00,60.00,Saturday
8,39929819.02431073
2,4, 1, 4, 0, 2, 0.00,10.00,Saturday
8,41938903.25402427
2,4, 1, 4, 0, 2,10.00,20.00,Saturday
8,42490274.09525127
2,4, 1, 4, 0, 2,20.00,30.00,Saturday
8,43541412.38191709
2,4, 1, 4, 0, 2,30.00,40.00,Saturday
8,44580004.60473391
2,4, 1, 4, 0, 2,40.00,50.00,Saturday
8,46165283.9210314
2,4, 1, 4, 0, 2,50.00,60.00,Saturday
8,46625916.274820186
2,4, 1, 4, 0, 3, 0.00,10.00,Saturday
8,48258195.31344897
2,4, 1, 4, 0, 3,10.00,20.00,Saturday
8,49783622.38655452
2,4, 1, 4, 0, 3,20.00,30.00,Saturday
8,51871071.92331233
2,4, 1, 4, 0, 3,30.00,40.00,Saturday
8,52861982.51806071
2,4, 1, 4, 0, 3,40.00,50.00,Saturday
8,54430685.27935723
2,4, 1, 4, 0, 3,50.00,60.00,Saturday
8,56020030.66831421
2,4, 1, 4, 0, 4, 0.00,10.00,Saturday
8,56112735.87180476
2,4, 1, 4, 0, 4,10.00,20.00,Saturday
8,54967091.068266384
2,4, 1, 4, 0, 4,20.00,30.00,Saturday
8,54356745.29209184
2,4, 1, 4, 0, 4,30.00,40.00,Saturday
8,53738504.506113075
2,4, 1, 4, 0, 4,40.00,50.00,Saturday
8,53670133.434001215
2,4, 1, 4, 0, 4,50.00,60.00,Saturday
8,52475459.206746906
2,4, 1, 4, 0, 5, 0.00,10.00,Saturday
8,52642913.09379311
2,4, 1, 4, 0, 5,10.00,20.00,Saturday
8,52676541.89270561
2,4, 1, 4, 0, 5,20.00,30.00,Saturday
8,53244055.670842215
2,4, 1, 4, 0, 5,30.00,40.00,Saturday
8,52684034.2611606
2,4, 1, 4, 0, 5,40.00,50.00,Saturday
8,52673352.42168649
2,4, 1, 4, 0, 5,50.00,60.00,Saturday
8,52655163.124322824
2,4, 1, 4, 0, 6, 0.00,10.00,Saturday
8,52996429.737119935
2,4, 1, 4, 0, 6,10.00,20.00,Saturday
8,52052060.19008661
2,4, 1, 4, 0, 6,20.00,30.00,Saturday
8,51632355.489697434
2,4, 1, 4, 0, 6,30.00,40.00,Saturday
8,51202687.883816436
2,4, 1, 4, 0, 6,40.00,50.00,Saturday
8,51324031.88398088
2,4, 1, 4, 0, 6,50.00,60.00,Saturday
8,50318595.10637201
2,4, 1, 4, 0, 7, 0.00,10.00,Saturday
8,49567652.54042713
2,4, 1, 4, 0, 7,10.00,20.00,Saturday
8,48796633.466027565
2,4, 1, 4, 0, 7,20.00,30.00,Saturday
8,48584705.77397193
2,4, 1, 4, 0, 7,30.00,40.00,Saturday
8,47254449.670070685
2,4, 1, 4, 0, 7,40.00,50.00,Saturday
8,46485753.38044367
2,4, 1, 4, 0, 7,50.00,60.00,Saturday
8,45720552.20258792
2,4, 1, 4, 0, 8, 0.00,10.00,Saturday
8,90441835.79262778
2,4, 1, 4, 0, 8,10.00,20.00,Saturday
8,32448519.47688439
2,4, 1, 4, 0, 8,20.00,30.00,Saturday
8,65543792.38268293
2,4, 1, 4, 0, 8,30.00,40.00,Saturday
8,59086667.950492315
2,4, 1, 4, 0, 8,40.00,50.00,Saturday
8,58379344.401848465
2,4, 1, 4, 0, 8,50.00,60.00,Saturday
8,57243378.86309
2,4, 1, 4, 0, 9, 0.00,10.00,Saturday
8,110337885.84618156
2,4, 1, 4, 0, 9,10.00,20.00,Saturday
8,97874551.17389968
2,4, 1, 4, 0, 9,20.00,30.00,Saturday
8,79358136.03121364
2,4, 1, 4, 0, 9,30.00,40.00,Saturday
8,80370543.62862962
2,4, 1, 4, 0, 9,40.00,50.00,Saturday
8,80392355.36698401
2,4, 1, 4, 0, 9,50.00,60.00,Saturday
8,78943067.01156537
2,4, 1, 4, 0,10, 0.00,10.00,Saturday
8,148241665.12305647
2,4, 1, 4, 0,10,10.00,20.00,Saturday
8,141718802.98241943
2,4, 1, 4, 0,10,20.00,30.00,Saturday
8,140784081.01113302
2,4, 1, 4, 0,10,30.00,40.00,Saturday
8,140303283.9661397
2,4, 1, 4, 0,10,40.00,50.00,Saturday
8,138943552.52600226
2,4, 1, 4, 0,10,50.00,60.00,Saturday
8,139470623.99045447
2,4, 1, 4, 0,11, 0.00,10.00,Saturday
8,134636921.33456463
2,4, 1, 4, 0,11,10.00,20.00,Saturday
8,133691460.45101112
2,4, 1, 4, 0,11,20.00,30.00,Saturday
8,133032813.43113022
2,4, 1, 4, 0,11,30.00,40.00,Saturday
8,132567760.60735725
2,4, 1, 4, 0,11,40.00,50.00,Saturday
8,132297902.92655346
2,4, 1, 4, 0,11,50.00,60.00,Saturday
8,132263130.93215688
2,4, 1, 4, 0,12, 0.00,10.00,Saturday
8,129052529.99744296
2,4, 1, 4, 0,12,10.00,20.00,Saturday
8,128176056.94968708
2,4, 1, 4, 0,12,20.00,30.00,Saturday
8,127548044.51568037
2,4, 1, 4, 0,12,30.00,40.00,Saturday
8,127170285.35340913
2,4, 1, 4, 0,12,40.00,50.00,Saturday
8,126929400.48385055
2,4, 1, 4, 0,12,50.00,60.00,Saturday
8,126775465.7805221
2,4, 1, 4, 0,13, 0.00,10.00,Saturday
8,124700491.3602878
2,4, 1, 4, 0,13,10.00,20.00,Saturday
8,124102480.43618132
2,4, 1, 4, 0,13,20.00,30.00,Saturday
8,123119087.34172519
2,4, 1, 4, 0,13,30.00,40.00,Saturday
8,122100200.91851759
2,4, 1, 4, 0,13,40.00,50.00,Saturday
8,121091588.04329133
2,4, 1, 4, 0,13,50.00,60.00,Saturday
8,120093767.40918899
2,4, 1, 4, 0,14, 0.00,10.00,Saturday
8,120891868.92381907
2,4, 1, 4, 0,14,10.00,20.00,Saturday
8,121751789.51116104